 vasp.5.3.3 18Dez12 (build Oct 30 2014 23:44:25) complex                        
  
 executed on             LinuxIFC date 2016.04.03  12:03:37
 running on    8 total cores
 distrk:  each k-point on    8 cores,    1 groups
 distr:  one band on NCORES_PER_BAND=   2 cores,    4 groups


--------------------------------------------------------------------------------------------------------


 INCAR:
 POTCAR:   PAW_PBE Hf_pv 06Sep2000                
 POTCAR:   PAW_PBE N 08Apr2002                    
 POTCAR:   PAW_PBE Hf_pv 06Sep2000                
   VRHFIN =Hf: 5p6s5d                                                           
   LEXCH  = PE                                                                  
   EATOM  =   859.6195 eV,   63.1803 Ry                                         
                                                                                
   TITEL  = PAW_PBE Hf_pv 06Sep2000                                             
   LULTRA =        F    use ultrasoft PP ?                                      
   IUNSCR =        1    unscreen: 0-lin 1-nonlin 2-no                           
   RPACOR =    2.500    partial core radius                                     
   POMASS =  178.490; ZVAL   =   10.000    mass and valenz                      
   RCORE  =    2.600    outmost cutoff radius                                   
   RWIGS  =    3.050; RWIGS  =    1.614    wigner-seitz radius (au A)           
   ENMAX  =  220.342; ENMIN  =  165.256 eV                                      
   RCLOC  =    2.212    cutoff for local pot                                    
   LCOR   =        T    correct aug charges                                     
   LPAW   =        T    paw PP                                                  
   EAUG   =  380.878                                                            
   DEXC   =    -.057                                                            
   RMAX   =    3.106    core radius for proj-oper                               
   RAUG   =    1.300    factor for augmentation sphere                          
   RDEP   =    2.681    radius for radial grids                                 
   QCUT   =   -4.024; QGAM   =    8.049    optimization parameters              
                                                                                
   Description                                                                  
     l     E      TYP  RCUT    TYP  RCUT                                        
     1   .000     23  2.500                                                     
     1   .000     23  2.500                                                     
     2   .000     23  2.500                                                     
     2   .000     23  2.500                                                     
     0   .000     23  2.600                                                     
     0   .000     23  2.600                                                     
     3   .000      7   .000                                                     
  local pseudopotential read in
  partial core-charges read in
  atomic valenz-charges read in
  non local Contribution for L=           1  read in
    real space projection operators read in
  non local Contribution for L=           1  read in
    real space projection operators read in
  non local Contribution for L=           2  read in
    real space projection operators read in
  non local Contribution for L=           2  read in
    real space projection operators read in
  non local Contribution for L=           0  read in
    real space projection operators read in
  non local Contribution for L=           0  read in
    real space projection operators read in
    PAW grid and wavefunctions read in
 
   number of l-projection  operators is LMAX  =           6
   number of lm-projection operators is LMMAX =          18
 
 POTCAR:   PAW_PBE N 08Apr2002                    
   VRHFIN =N: s2p3                                                              
   LEXCH  = PE                                                                  
   EATOM  =   264.5486 eV,   19.4438 Ry                                         
                                                                                
   TITEL  = PAW_PBE N 08Apr2002                                                 
   LULTRA =        F    use ultrasoft PP ?                                      
   IUNSCR =        0    unscreen: 0-lin 1-nonlin 2-no                           
   RPACOR =     .000    partial core radius                                     
   POMASS =   14.001; ZVAL   =    5.000    mass and valenz                      
   RCORE  =    1.500    outmost cutoff radius                                   
   RWIGS  =    1.400; RWIGS  =     .741    wigner-seitz radius (au A)           
   ENMAX  =  400.000; ENMIN  =  300.000 eV                                      
   ICORE  =        2    local potential                                         
   LCOR   =        T    correct aug charges                                     
   LPAW   =        T    paw PP                                                  
   EAUG   =  627.112                                                            
   DEXC   =     .000                                                            
   RMAX   =    2.247    core radius for proj-oper                               
   RAUG   =    1.300    factor for augmentation sphere                          
   RDEP   =    1.514    radius for radial grids                                 
   QCUT   =   -5.562; QGAM   =   11.124    optimization parameters              
                                                                                
   Description                                                                  
     l     E      TYP  RCUT    TYP  RCUT                                        
     0   .000     23  1.200                                                     
     0   .000     23  1.200                                                     
     1   .000     23  1.500                                                     
     1   .700     23  1.500                                                     
     2   .000      7  1.500                                                     
  local pseudopotential read in
  atomic valenz-charges read in
  non local Contribution for L=           0  read in
    real space projection operators read in
  non local Contribution for L=           0  read in
    real space projection operators read in
  non local Contribution for L=           1  read in
    real space projection operators read in
  non local Contribution for L=           1  read in
    real space projection operators read in
    PAW grid and wavefunctions read in
 
   number of l-projection  operators is LMAX  =           4
   number of lm-projection operators is LMMAX =           8
 

 ----------------------------------------------------------------------------- 
|                                                                             |
|  ADVICE TO THIS USER RUNNING 'VASP/VAMP'   (HEAR YOUR MASTER'S VOICE ...):  |
|                                                                             |
|      You have a (more or less) 'large supercell' and for larger cells       |
|      it might be more efficient to use real space projection operators      |
|      So try LREAL= Auto  in the INCAR   file.                               |
|      Mind: If you want to do a very accurate calculations keep the          |
|      reciprocal projection scheme          (i.e. LREAL=.FALSE.)             |
|                                                                             |
 ----------------------------------------------------------------------------- 

 PAW_PBE Hf_pv 06Sep2000                :
 energy of atom  1       EATOM= -859.6195
 kinetic energy error for atom=    0.0008 (will be added to EATOM!!)
 PAW_PBE N 08Apr2002                    :
 energy of atom  2       EATOM= -264.5486
 kinetic energy error for atom=    0.0103 (will be added to EATOM!!)
 
 
 POSCAR: SG44HfN10_0GPa_conventionalcell\(2)     
  positions in direct lattice
  velocities in cartesian coordinates
 exchange correlation table for  LEXCH =        8
   RHO(1)=    0.500       N(1)  =     2000
   RHO(2)=  100.500       N(2)  =     4000
 


--------------------------------------------------------------------------------------------------------


 ion  position               nearest neighbor table
   1  0.500  0.500  0.721-  15 2.36  16 2.36  17 2.36  18 2.36   7 2.36   8 2.36   9 2.36  10 2.36

   2  0.000  0.000  0.221-  11 2.36  14 2.36  13 2.36  12 2.36   3 2.36   4 2.36   5 2.36   6 2.36

   3  0.809  0.193  0.897-  11 1.33  16 1.35   2 2.36
   4  0.191  0.807  0.897-  12 1.33  15 1.35   2 2.36
   5  0.809  0.807  0.897-  13 1.33  18 1.35   2 2.36
   6  0.191  0.193  0.897-  14 1.33  17 1.35   2 2.36
   7  0.309  0.693  0.397-  15 1.33  12 1.35   1 2.36
   8  0.691  0.307  0.397-  16 1.33  11 1.35   1 2.36
   9  0.309  0.307  0.397-  17 1.33  14 1.35   1 2.36
  10  0.691  0.693  0.397-  18 1.33  13 1.35   1 2.36
  11  0.809  0.193  0.544-   3 1.33   8 1.35   2 2.36
  12  0.191  0.807  0.544-   4 1.33   7 1.35   2 2.36
  13  0.809  0.807  0.544-   5 1.33  10 1.35   2 2.36
  14  0.191  0.193  0.544-   6 1.33   9 1.35   2 2.36
  15  0.309  0.693  0.044-   7 1.33   4 1.35   1 2.36
  16  0.691  0.307  0.044-   8 1.33   3 1.35   1 2.36
  17  0.309  0.307  0.044-   9 1.33   6 1.35   1 2.36
  18  0.691  0.693  0.044-  10 1.33   5 1.35   1 2.36
  19  0.000  0.500  0.369-  21 1.11
  20  0.500  0.000  0.869-  22 1.11
  21  0.000  0.500  0.072-  19 1.11
  22  0.500  0.000  0.572-  20 1.11
 
  LATTYP: Found a simple orthorhombic cell.
 ALAT       =     3.7553799216
 B/A-ratio  =     1.9791816335
 C/A-ratio  =     1.9900617709
  
  Lattice vectors:
  
 A1 = (   0.0000000000,   0.0000000000,  -3.7553799216)
 A2 = (   0.0000000000,  -7.4325789676,   0.0000000000)
 A3 = (  -7.4734380174,   0.0000000000,   0.0000000000)


Analysis of symmetry for initial positions (statically):
=====================================================================
 Subroutine PRICEL returns following result:
 
  LATTYP: Found a body centered orthorhombic cell.
 ALAT       =     3.7553799216
 B/A-ratio  =     1.9791816335
 C/A-ratio  =     1.9900617709
  
  Lattice vectors:
  
 A1 = (  -3.7367190087,  -3.7162894838,   1.8776899647)
 A2 = (  -3.7367190087,   3.7162894838,  -1.8776899569)
 A3 = (   3.7367190087,  -3.7162894838,  -1.8776899647)
 
   2 primitive cells build up your supercell.
 

 Routine SETGRP: Setting up the symmetry group for a 
 simple orthorhombic supercell.


 Subroutine GETGRP returns: Found  4 space group operations
 (whereof  4 operations were pure point group operations)
 out of a pool of  8 trial point group operations.


The static configuration has the point symmetry C_2v.


Analysis of symmetry for dynamics (positions and initial velocities):
=====================================================================
 Subroutine PRICEL returns following result:
 
  LATTYP: Found a body centered orthorhombic cell.
 ALAT       =     3.7553799216
 B/A-ratio  =     1.9791816335
 C/A-ratio  =     1.9900617709
  
  Lattice vectors:
  
 A1 = (  -3.7367190087,  -3.7162894838,   1.8776899647)
 A2 = (  -3.7367190087,   3.7162894838,  -1.8776899569)
 A3 = (   3.7367190087,  -3.7162894838,  -1.8776899647)
 
   2 primitive cells build up your supercell.
 

 Routine SETGRP: Setting up the symmetry group for a 
 simple orthorhombic supercell.


 Subroutine GETGRP returns: Found  4 space group operations
 (whereof  4 operations were pure point group operations)
 out of a pool of  8 trial point group operations.


The dynamic configuration has the point symmetry C_2v.


 irot  :   1
 --------------------------------------------------------------------
 isymop:   1   0   0
           0   1   0
           0   0   1

 gtrans:     0.0000000     0.0000000     0.0000000

 ptrans:     0.0000000     0.0000000     0.0000000
 rotmap:
 (   1->   1)  (   2->   2)  (   3->   3)  (   4->   4)  (   5->   5) 
 (   6->   6)  (   7->   7)  (   8->   8)  (   9->   9)  (  10->  10) 
 (  11->  11)  (  12->  12)  (  13->  13)  (  14->  14)  (  15->  15) 
 (  16->  16)  (  17->  17)  (  18->  18)  (  19->  19)  (  20->  20) 
 (  21->  21)  (  22->  22) 

 ptrans:     0.5000000     0.5000000     0.5000000
 rotmap:
 (   1->   2)  (   2->   1)  (   3->   7)  (   4->   8)  (   5->   9) 
 (   6->  10)  (   7->   3)  (   8->   4)  (   9->   5)  (  10->   6) 
 (  11->  15)  (  12->  16)  (  13->  17)  (  14->  18)  (  15->  11) 
 (  16->  12)  (  17->  13)  (  18->  14)  (  19->  20)  (  20->  19) 
 (  21->  22)  (  22->  21) 


 irot  :   2
 --------------------------------------------------------------------
 isymop:  -1   0   0
           0   1   0
           0   0   1

 gtrans:     0.0000000     0.0000000     0.0000000

 ptrans:     0.0000000     0.0000000     0.0000000
 rotmap:
 (   1->   1)  (   2->   2)  (   3->   6)  (   4->   5)  (   5->   4) 
 (   6->   3)  (   7->  10)  (   8->   9)  (   9->   8)  (  10->   7) 
 (  11->  14)  (  12->  13)  (  13->  12)  (  14->  11)  (  15->  18) 
 (  16->  17)  (  17->  16)  (  18->  15)  (  19->  19)  (  20->  20) 
 (  21->  21)  (  22->  22) 

 ptrans:     0.5000000     0.5000000     0.5000000
 rotmap:
 (   1->   2)  (   2->   1)  (   3->  10)  (   4->   9)  (   5->   8) 
 (   6->   7)  (   7->   6)  (   8->   5)  (   9->   4)  (  10->   3) 
 (  11->  18)  (  12->  17)  (  13->  16)  (  14->  15)  (  15->  14) 
 (  16->  13)  (  17->  12)  (  18->  11)  (  19->  20)  (  20->  19) 
 (  21->  22)  (  22->  21) 


 irot  :   3
 --------------------------------------------------------------------
 isymop:   1   0   0
           0  -1   0
           0   0   1

 gtrans:     0.0000000     0.0000000     0.0000000

 ptrans:     0.0000000     0.0000000     0.0000000
 rotmap:
 (   1->   1)  (   2->   2)  (   3->   5)  (   4->   6)  (   5->   3) 
 (   6->   4)  (   7->   9)  (   8->  10)  (   9->   7)  (  10->   8) 
 (  11->  13)  (  12->  14)  (  13->  11)  (  14->  12)  (  15->  17) 
 (  16->  18)  (  17->  15)  (  18->  16)  (  19->  19)  (  20->  20) 
 (  21->  21)  (  22->  22) 

 ptrans:     0.5000000     0.5000000     0.5000000
 rotmap:
 (   1->   2)  (   2->   1)  (   3->   9)  (   4->  10)  (   5->   7) 
 (   6->   8)  (   7->   5)  (   8->   6)  (   9->   3)  (  10->   4) 
 (  11->  17)  (  12->  18)  (  13->  15)  (  14->  16)  (  15->  13) 
 (  16->  14)  (  17->  11)  (  18->  12)  (  19->  20)  (  20->  19) 
 (  21->  22)  (  22->  21) 


 irot  :   4
 --------------------------------------------------------------------
 isymop:  -1   0   0
           0  -1   0
           0   0   1

 gtrans:     0.0000000     0.0000000     0.0000000

 ptrans:     0.0000000     0.0000000     0.0000000
 rotmap:
 (   1->   1)  (   2->   2)  (   3->   4)  (   4->   3)  (   5->   6) 
 (   6->   5)  (   7->   8)  (   8->   7)  (   9->  10)  (  10->   9) 
 (  11->  12)  (  12->  11)  (  13->  14)  (  14->  13)  (  15->  16) 
 (  16->  15)  (  17->  18)  (  18->  17)  (  19->  19)  (  20->  20) 
 (  21->  21)  (  22->  22) 

 ptrans:     0.5000000     0.5000000     0.5000000
 rotmap:
 (   1->   2)  (   2->   1)  (   3->   8)  (   4->   7)  (   5->  10) 
 (   6->   9)  (   7->   4)  (   8->   3)  (   9->   6)  (  10->   5) 
 (  11->  16)  (  12->  15)  (  13->  18)  (  14->  17)  (  15->  12) 
 (  16->  11)  (  17->  14)  (  18->  13)  (  19->  20)  (  20->  19) 
 (  21->  22)  (  22->  21) 
 
 
 KPOINTS: Automatic generation                    

Automatic generation of k-mesh.
Space group operators:
 irot       det(A)        alpha          n_x          n_y          n_z        tau_x        tau_y        tau_z
    1     1.000000     0.000001     1.000000     0.000000     0.000000     0.000000     0.000000     0.000000
    2    -1.000000   180.000000     1.000000     0.000000     0.000000     0.000000     0.000000     0.000000
    3    -1.000000   179.999999     0.000000     1.000000     0.000000     0.000000     0.000000     0.000000
    4     1.000000   180.000000     0.000000     0.000000     1.000000     0.000000     0.000000     0.000000
 
 Subroutine IBZKPT returns following result:
 ===========================================
 
 Found    512 irreducible k-points:
 
 Following reciprocal coordinates:
            Coordinates               Weight
  0.000000  0.000000  0.000000      1.000000
  0.066667  0.000000  0.000000      2.000000
  0.133333  0.000000  0.000000      2.000000
  0.200000  0.000000  0.000000      2.000000
  0.266667  0.000000  0.000000      2.000000
  0.333333  0.000000  0.000000      2.000000
  0.400000  0.000000  0.000000      2.000000
  0.466667  0.000000  0.000000      2.000000
  0.000000  0.066667  0.000000      2.000000
  0.066667  0.066667  0.000000      4.000000
  0.133333  0.066667  0.000000      4.000000
  0.200000  0.066667  0.000000      4.000000
  0.266667  0.066667  0.000000      4.000000
  0.333333  0.066667  0.000000      4.000000
  0.400000  0.066667  0.000000      4.000000
  0.466667  0.066667  0.000000      4.000000
  0.000000  0.133333  0.000000      2.000000
  0.066667  0.133333  0.000000      4.000000
  0.133333  0.133333  0.000000      4.000000
  0.200000  0.133333  0.000000      4.000000
  0.266667  0.133333  0.000000      4.000000
  0.333333  0.133333  0.000000      4.000000
  0.400000  0.133333  0.000000      4.000000
  0.466667  0.133333  0.000000      4.000000
  0.000000  0.200000  0.000000      2.000000
  0.066667  0.200000  0.000000      4.000000
  0.133333  0.200000  0.000000      4.000000
  0.200000  0.200000  0.000000      4.000000
  0.266667  0.200000  0.000000      4.000000
  0.333333  0.200000  0.000000      4.000000
  0.400000  0.200000  0.000000      4.000000
  0.466667  0.200000  0.000000      4.000000
  0.000000  0.266667  0.000000      2.000000
  0.066667  0.266667  0.000000      4.000000
  0.133333  0.266667  0.000000      4.000000
  0.200000  0.266667  0.000000      4.000000
  0.266667  0.266667  0.000000      4.000000
  0.333333  0.266667  0.000000      4.000000
  0.400000  0.266667  0.000000      4.000000
  0.466667  0.266667  0.000000      4.000000
  0.000000  0.333333  0.000000      2.000000
  0.066667  0.333333  0.000000      4.000000
  0.133333  0.333333  0.000000      4.000000
  0.200000  0.333333  0.000000      4.000000
  0.266667  0.333333  0.000000      4.000000
  0.333333  0.333333  0.000000      4.000000
  0.400000  0.333333  0.000000      4.000000
  0.466667  0.333333  0.000000      4.000000
  0.000000  0.400000  0.000000      2.000000
  0.066667  0.400000  0.000000      4.000000
  0.133333  0.400000  0.000000      4.000000
  0.200000  0.400000  0.000000      4.000000
  0.266667  0.400000  0.000000      4.000000
  0.333333  0.400000  0.000000      4.000000
  0.400000  0.400000  0.000000      4.000000
  0.466667  0.400000  0.000000      4.000000
  0.000000  0.466667  0.000000      2.000000
  0.066667  0.466667  0.000000      4.000000
  0.133333  0.466667  0.000000      4.000000
  0.200000  0.466667  0.000000      4.000000
  0.266667  0.466667  0.000000      4.000000
  0.333333  0.466667  0.000000      4.000000
  0.400000  0.466667  0.000000      4.000000
  0.466667  0.466667  0.000000      4.000000
  0.000000  0.000000  0.066667      2.000000
  0.066667  0.000000  0.066667      4.000000
  0.133333  0.000000  0.066667      4.000000
  0.200000  0.000000  0.066667      4.000000
  0.266667  0.000000  0.066667      4.000000
  0.333333  0.000000  0.066667      4.000000
  0.400000  0.000000  0.066667      4.000000
  0.466667  0.000000  0.066667      4.000000
  0.000000  0.066667  0.066667      4.000000
  0.066667  0.066667  0.066667      8.000000
  0.133333  0.066667  0.066667      8.000000
  0.200000  0.066667  0.066667      8.000000
  0.266667  0.066667  0.066667      8.000000
  0.333333  0.066667  0.066667      8.000000
  0.400000  0.066667  0.066667      8.000000
  0.466667  0.066667  0.066667      8.000000
  0.000000  0.133333  0.066667      4.000000
  0.066667  0.133333  0.066667      8.000000
  0.133333  0.133333  0.066667      8.000000
  0.200000  0.133333  0.066667      8.000000
  0.266667  0.133333  0.066667      8.000000
  0.333333  0.133333  0.066667      8.000000
  0.400000  0.133333  0.066667      8.000000
  0.466667  0.133333  0.066667      8.000000
  0.000000  0.200000  0.066667      4.000000
  0.066667  0.200000  0.066667      8.000000
  0.133333  0.200000  0.066667      8.000000
  0.200000  0.200000  0.066667      8.000000
  0.266667  0.200000  0.066667      8.000000
  0.333333  0.200000  0.066667      8.000000
  0.400000  0.200000  0.066667      8.000000
  0.466667  0.200000  0.066667      8.000000
  0.000000  0.266667  0.066667      4.000000
  0.066667  0.266667  0.066667      8.000000
  0.133333  0.266667  0.066667      8.000000
  0.200000  0.266667  0.066667      8.000000
  0.266667  0.266667  0.066667      8.000000
  0.333333  0.266667  0.066667      8.000000
  0.400000  0.266667  0.066667      8.000000
  0.466667  0.266667  0.066667      8.000000
  0.000000  0.333333  0.066667      4.000000
  0.066667  0.333333  0.066667      8.000000
  0.133333  0.333333  0.066667      8.000000
  0.200000  0.333333  0.066667      8.000000
  0.266667  0.333333  0.066667      8.000000
  0.333333  0.333333  0.066667      8.000000
  0.400000  0.333333  0.066667      8.000000
  0.466667  0.333333  0.066667      8.000000
  0.000000  0.400000  0.066667      4.000000
  0.066667  0.400000  0.066667      8.000000
  0.133333  0.400000  0.066667      8.000000
  0.200000  0.400000  0.066667      8.000000
  0.266667  0.400000  0.066667      8.000000
  0.333333  0.400000  0.066667      8.000000
  0.400000  0.400000  0.066667      8.000000
  0.466667  0.400000  0.066667      8.000000
  0.000000  0.466667  0.066667      4.000000
  0.066667  0.466667  0.066667      8.000000
  0.133333  0.466667  0.066667      8.000000
  0.200000  0.466667  0.066667      8.000000
  0.266667  0.466667  0.066667      8.000000
  0.333333  0.466667  0.066667      8.000000
  0.400000  0.466667  0.066667      8.000000
  0.466667  0.466667  0.066667      8.000000
  0.000000  0.000000  0.133333      2.000000
  0.066667  0.000000  0.133333      4.000000
  0.133333  0.000000  0.133333      4.000000
  0.200000  0.000000  0.133333      4.000000
  0.266667  0.000000  0.133333      4.000000
  0.333333  0.000000  0.133333      4.000000
  0.400000  0.000000  0.133333      4.000000
  0.466667  0.000000  0.133333      4.000000
  0.000000  0.066667  0.133333      4.000000
  0.066667  0.066667  0.133333      8.000000
  0.133333  0.066667  0.133333      8.000000
  0.200000  0.066667  0.133333      8.000000
  0.266667  0.066667  0.133333      8.000000
  0.333333  0.066667  0.133333      8.000000
  0.400000  0.066667  0.133333      8.000000
  0.466667  0.066667  0.133333      8.000000
  0.000000  0.133333  0.133333      4.000000
  0.066667  0.133333  0.133333      8.000000
  0.133333  0.133333  0.133333      8.000000
  0.200000  0.133333  0.133333      8.000000
  0.266667  0.133333  0.133333      8.000000
  0.333333  0.133333  0.133333      8.000000
  0.400000  0.133333  0.133333      8.000000
  0.466667  0.133333  0.133333      8.000000
  0.000000  0.200000  0.133333      4.000000
  0.066667  0.200000  0.133333      8.000000
  0.133333  0.200000  0.133333      8.000000
  0.200000  0.200000  0.133333      8.000000
  0.266667  0.200000  0.133333      8.000000
  0.333333  0.200000  0.133333      8.000000
  0.400000  0.200000  0.133333      8.000000
  0.466667  0.200000  0.133333      8.000000
  0.000000  0.266667  0.133333      4.000000
  0.066667  0.266667  0.133333      8.000000
  0.133333  0.266667  0.133333      8.000000
  0.200000  0.266667  0.133333      8.000000
  0.266667  0.266667  0.133333      8.000000
  0.333333  0.266667  0.133333      8.000000
  0.400000  0.266667  0.133333      8.000000
  0.466667  0.266667  0.133333      8.000000
  0.000000  0.333333  0.133333      4.000000
  0.066667  0.333333  0.133333      8.000000
  0.133333  0.333333  0.133333      8.000000
  0.200000  0.333333  0.133333      8.000000
  0.266667  0.333333  0.133333      8.000000
  0.333333  0.333333  0.133333      8.000000
  0.400000  0.333333  0.133333      8.000000
  0.466667  0.333333  0.133333      8.000000
  0.000000  0.400000  0.133333      4.000000
  0.066667  0.400000  0.133333      8.000000
  0.133333  0.400000  0.133333      8.000000
  0.200000  0.400000  0.133333      8.000000
  0.266667  0.400000  0.133333      8.000000
  0.333333  0.400000  0.133333      8.000000
  0.400000  0.400000  0.133333      8.000000
  0.466667  0.400000  0.133333      8.000000
  0.000000  0.466667  0.133333      4.000000
  0.066667  0.466667  0.133333      8.000000
  0.133333  0.466667  0.133333      8.000000
  0.200000  0.466667  0.133333      8.000000
  0.266667  0.466667  0.133333      8.000000
  0.333333  0.466667  0.133333      8.000000
  0.400000  0.466667  0.133333      8.000000
  0.466667  0.466667  0.133333      8.000000
  0.000000  0.000000  0.200000      2.000000
  0.066667  0.000000  0.200000      4.000000
  0.133333  0.000000  0.200000      4.000000
  0.200000  0.000000  0.200000      4.000000
  0.266667  0.000000  0.200000      4.000000
  0.333333  0.000000  0.200000      4.000000
  0.400000  0.000000  0.200000      4.000000
  0.466667  0.000000  0.200000      4.000000
  0.000000  0.066667  0.200000      4.000000
  0.066667  0.066667  0.200000      8.000000
  0.133333  0.066667  0.200000      8.000000
  0.200000  0.066667  0.200000      8.000000
  0.266667  0.066667  0.200000      8.000000
  0.333333  0.066667  0.200000      8.000000
  0.400000  0.066667  0.200000      8.000000
  0.466667  0.066667  0.200000      8.000000
  0.000000  0.133333  0.200000      4.000000
  0.066667  0.133333  0.200000      8.000000
  0.133333  0.133333  0.200000      8.000000
  0.200000  0.133333  0.200000      8.000000
  0.266667  0.133333  0.200000      8.000000
  0.333333  0.133333  0.200000      8.000000
  0.400000  0.133333  0.200000      8.000000
  0.466667  0.133333  0.200000      8.000000
  0.000000  0.200000  0.200000      4.000000
  0.066667  0.200000  0.200000      8.000000
  0.133333  0.200000  0.200000      8.000000
  0.200000  0.200000  0.200000      8.000000
  0.266667  0.200000  0.200000      8.000000
  0.333333  0.200000  0.200000      8.000000
  0.400000  0.200000  0.200000      8.000000
  0.466667  0.200000  0.200000      8.000000
  0.000000  0.266667  0.200000      4.000000
  0.066667  0.266667  0.200000      8.000000
  0.133333  0.266667  0.200000      8.000000
  0.200000  0.266667  0.200000      8.000000
  0.266667  0.266667  0.200000      8.000000
  0.333333  0.266667  0.200000      8.000000
  0.400000  0.266667  0.200000      8.000000
  0.466667  0.266667  0.200000      8.000000
  0.000000  0.333333  0.200000      4.000000
  0.066667  0.333333  0.200000      8.000000
  0.133333  0.333333  0.200000      8.000000
  0.200000  0.333333  0.200000      8.000000
  0.266667  0.333333  0.200000      8.000000
  0.333333  0.333333  0.200000      8.000000
  0.400000  0.333333  0.200000      8.000000
  0.466667  0.333333  0.200000      8.000000
  0.000000  0.400000  0.200000      4.000000
  0.066667  0.400000  0.200000      8.000000
  0.133333  0.400000  0.200000      8.000000
  0.200000  0.400000  0.200000      8.000000
  0.266667  0.400000  0.200000      8.000000
  0.333333  0.400000  0.200000      8.000000
  0.400000  0.400000  0.200000      8.000000
  0.466667  0.400000  0.200000      8.000000
  0.000000  0.466667  0.200000      4.000000
  0.066667  0.466667  0.200000      8.000000
  0.133333  0.466667  0.200000      8.000000
  0.200000  0.466667  0.200000      8.000000
  0.266667  0.466667  0.200000      8.000000
  0.333333  0.466667  0.200000      8.000000
  0.400000  0.466667  0.200000      8.000000
  0.466667  0.466667  0.200000      8.000000
  0.000000  0.000000  0.266667      2.000000
  0.066667  0.000000  0.266667      4.000000
  0.133333  0.000000  0.266667      4.000000
  0.200000  0.000000  0.266667      4.000000
  0.266667  0.000000  0.266667      4.000000
  0.333333  0.000000  0.266667      4.000000
  0.400000  0.000000  0.266667      4.000000
  0.466667  0.000000  0.266667      4.000000
  0.000000  0.066667  0.266667      4.000000
  0.066667  0.066667  0.266667      8.000000
  0.133333  0.066667  0.266667      8.000000
  0.200000  0.066667  0.266667      8.000000
  0.266667  0.066667  0.266667      8.000000
  0.333333  0.066667  0.266667      8.000000
  0.400000  0.066667  0.266667      8.000000
  0.466667  0.066667  0.266667      8.000000
  0.000000  0.133333  0.266667      4.000000
  0.066667  0.133333  0.266667      8.000000
  0.133333  0.133333  0.266667      8.000000
  0.200000  0.133333  0.266667      8.000000
  0.266667  0.133333  0.266667      8.000000
  0.333333  0.133333  0.266667      8.000000
  0.400000  0.133333  0.266667      8.000000
  0.466667  0.133333  0.266667      8.000000
  0.000000  0.200000  0.266667      4.000000
  0.066667  0.200000  0.266667      8.000000
  0.133333  0.200000  0.266667      8.000000
  0.200000  0.200000  0.266667      8.000000
  0.266667  0.200000  0.266667      8.000000
  0.333333  0.200000  0.266667      8.000000
  0.400000  0.200000  0.266667      8.000000
  0.466667  0.200000  0.266667      8.000000
  0.000000  0.266667  0.266667      4.000000
  0.066667  0.266667  0.266667      8.000000
  0.133333  0.266667  0.266667      8.000000
  0.200000  0.266667  0.266667      8.000000
  0.266667  0.266667  0.266667      8.000000
  0.333333  0.266667  0.266667      8.000000
  0.400000  0.266667  0.266667      8.000000
  0.466667  0.266667  0.266667      8.000000
  0.000000  0.333333  0.266667      4.000000
  0.066667  0.333333  0.266667      8.000000
  0.133333  0.333333  0.266667      8.000000
  0.200000  0.333333  0.266667      8.000000
  0.266667  0.333333  0.266667      8.000000
  0.333333  0.333333  0.266667      8.000000
  0.400000  0.333333  0.266667      8.000000
  0.466667  0.333333  0.266667      8.000000
  0.000000  0.400000  0.266667      4.000000
  0.066667  0.400000  0.266667      8.000000
  0.133333  0.400000  0.266667      8.000000
  0.200000  0.400000  0.266667      8.000000
  0.266667  0.400000  0.266667      8.000000
  0.333333  0.400000  0.266667      8.000000
  0.400000  0.400000  0.266667      8.000000
  0.466667  0.400000  0.266667      8.000000
  0.000000  0.466667  0.266667      4.000000
  0.066667  0.466667  0.266667      8.000000
  0.133333  0.466667  0.266667      8.000000
  0.200000  0.466667  0.266667      8.000000
  0.266667  0.466667  0.266667      8.000000
  0.333333  0.466667  0.266667      8.000000
  0.400000  0.466667  0.266667      8.000000
  0.466667  0.466667  0.266667      8.000000
  0.000000  0.000000  0.333333      2.000000
  0.066667  0.000000  0.333333      4.000000
  0.133333  0.000000  0.333333      4.000000
  0.200000  0.000000  0.333333      4.000000
  0.266667  0.000000  0.333333      4.000000
  0.333333  0.000000  0.333333      4.000000
  0.400000  0.000000  0.333333      4.000000
  0.466667  0.000000  0.333333      4.000000
  0.000000  0.066667  0.333333      4.000000
  0.066667  0.066667  0.333333      8.000000
  0.133333  0.066667  0.333333      8.000000
  0.200000  0.066667  0.333333      8.000000
  0.266667  0.066667  0.333333      8.000000
  0.333333  0.066667  0.333333      8.000000
  0.400000  0.066667  0.333333      8.000000
  0.466667  0.066667  0.333333      8.000000
  0.000000  0.133333  0.333333      4.000000
  0.066667  0.133333  0.333333      8.000000
  0.133333  0.133333  0.333333      8.000000
  0.200000  0.133333  0.333333      8.000000
  0.266667  0.133333  0.333333      8.000000
  0.333333  0.133333  0.333333      8.000000
  0.400000  0.133333  0.333333      8.000000
  0.466667  0.133333  0.333333      8.000000
  0.000000  0.200000  0.333333      4.000000
  0.066667  0.200000  0.333333      8.000000
  0.133333  0.200000  0.333333      8.000000
  0.200000  0.200000  0.333333      8.000000
  0.266667  0.200000  0.333333      8.000000
  0.333333  0.200000  0.333333      8.000000
  0.400000  0.200000  0.333333      8.000000
  0.466667  0.200000  0.333333      8.000000
  0.000000  0.266667  0.333333      4.000000
  0.066667  0.266667  0.333333      8.000000
  0.133333  0.266667  0.333333      8.000000
  0.200000  0.266667  0.333333      8.000000
  0.266667  0.266667  0.333333      8.000000
  0.333333  0.266667  0.333333      8.000000
  0.400000  0.266667  0.333333      8.000000
  0.466667  0.266667  0.333333      8.000000
  0.000000  0.333333  0.333333      4.000000
  0.066667  0.333333  0.333333      8.000000
  0.133333  0.333333  0.333333      8.000000
  0.200000  0.333333  0.333333      8.000000
  0.266667  0.333333  0.333333      8.000000
  0.333333  0.333333  0.333333      8.000000
  0.400000  0.333333  0.333333      8.000000
  0.466667  0.333333  0.333333      8.000000
  0.000000  0.400000  0.333333      4.000000
  0.066667  0.400000  0.333333      8.000000
  0.133333  0.400000  0.333333      8.000000
  0.200000  0.400000  0.333333      8.000000
  0.266667  0.400000  0.333333      8.000000
  0.333333  0.400000  0.333333      8.000000
  0.400000  0.400000  0.333333      8.000000
  0.466667  0.400000  0.333333      8.000000
  0.000000  0.466667  0.333333      4.000000
  0.066667  0.466667  0.333333      8.000000
  0.133333  0.466667  0.333333      8.000000
  0.200000  0.466667  0.333333      8.000000
  0.266667  0.466667  0.333333      8.000000
  0.333333  0.466667  0.333333      8.000000
  0.400000  0.466667  0.333333      8.000000
  0.466667  0.466667  0.333333      8.000000
  0.000000  0.000000  0.400000      2.000000
  0.066667  0.000000  0.400000      4.000000
  0.133333  0.000000  0.400000      4.000000
  0.200000  0.000000  0.400000      4.000000
  0.266667  0.000000  0.400000      4.000000
  0.333333  0.000000  0.400000      4.000000
  0.400000  0.000000  0.400000      4.000000
  0.466667  0.000000  0.400000      4.000000
  0.000000  0.066667  0.400000      4.000000
  0.066667  0.066667  0.400000      8.000000
  0.133333  0.066667  0.400000      8.000000
  0.200000  0.066667  0.400000      8.000000
  0.266667  0.066667  0.400000      8.000000
  0.333333  0.066667  0.400000      8.000000
  0.400000  0.066667  0.400000      8.000000
  0.466667  0.066667  0.400000      8.000000
  0.000000  0.133333  0.400000      4.000000
  0.066667  0.133333  0.400000      8.000000
  0.133333  0.133333  0.400000      8.000000
  0.200000  0.133333  0.400000      8.000000
  0.266667  0.133333  0.400000      8.000000
  0.333333  0.133333  0.400000      8.000000
  0.400000  0.133333  0.400000      8.000000
  0.466667  0.133333  0.400000      8.000000
  0.000000  0.200000  0.400000      4.000000
  0.066667  0.200000  0.400000      8.000000
  0.133333  0.200000  0.400000      8.000000
  0.200000  0.200000  0.400000      8.000000
  0.266667  0.200000  0.400000      8.000000
  0.333333  0.200000  0.400000      8.000000
  0.400000  0.200000  0.400000      8.000000
  0.466667  0.200000  0.400000      8.000000
  0.000000  0.266667  0.400000      4.000000
  0.066667  0.266667  0.400000      8.000000
  0.133333  0.266667  0.400000      8.000000
  0.200000  0.266667  0.400000      8.000000
  0.266667  0.266667  0.400000      8.000000
  0.333333  0.266667  0.400000      8.000000
  0.400000  0.266667  0.400000      8.000000
  0.466667  0.266667  0.400000      8.000000
  0.000000  0.333333  0.400000      4.000000
  0.066667  0.333333  0.400000      8.000000
  0.133333  0.333333  0.400000      8.000000
  0.200000  0.333333  0.400000      8.000000
  0.266667  0.333333  0.400000      8.000000
  0.333333  0.333333  0.400000      8.000000
  0.400000  0.333333  0.400000      8.000000
  0.466667  0.333333  0.400000      8.000000
  0.000000  0.400000  0.400000      4.000000
  0.066667  0.400000  0.400000      8.000000
  0.133333  0.400000  0.400000      8.000000
  0.200000  0.400000  0.400000      8.000000
  0.266667  0.400000  0.400000      8.000000
  0.333333  0.400000  0.400000      8.000000
  0.400000  0.400000  0.400000      8.000000
  0.466667  0.400000  0.400000      8.000000
  0.000000  0.466667  0.400000      4.000000
  0.066667  0.466667  0.400000      8.000000
  0.133333  0.466667  0.400000      8.000000
  0.200000  0.466667  0.400000      8.000000
  0.266667  0.466667  0.400000      8.000000
  0.333333  0.466667  0.400000      8.000000
  0.400000  0.466667  0.400000      8.000000
  0.466667  0.466667  0.400000      8.000000
  0.000000  0.000000  0.466667      2.000000
  0.066667  0.000000  0.466667      4.000000
  0.133333  0.000000  0.466667      4.000000
  0.200000  0.000000  0.466667      4.000000
  0.266667  0.000000  0.466667      4.000000
  0.333333  0.000000  0.466667      4.000000
  0.400000  0.000000  0.466667      4.000000
  0.466667  0.000000  0.466667      4.000000
  0.000000  0.066667  0.466667      4.000000
  0.066667  0.066667  0.466667      8.000000
  0.133333  0.066667  0.466667      8.000000
  0.200000  0.066667  0.466667      8.000000
  0.266667  0.066667  0.466667      8.000000
  0.333333  0.066667  0.466667      8.000000
  0.400000  0.066667  0.466667      8.000000
  0.466667  0.066667  0.466667      8.000000
  0.000000  0.133333  0.466667      4.000000
  0.066667  0.133333  0.466667      8.000000
  0.133333  0.133333  0.466667      8.000000
  0.200000  0.133333  0.466667      8.000000
  0.266667  0.133333  0.466667      8.000000
  0.333333  0.133333  0.466667      8.000000
  0.400000  0.133333  0.466667      8.000000
  0.466667  0.133333  0.466667      8.000000
  0.000000  0.200000  0.466667      4.000000
  0.066667  0.200000  0.466667      8.000000
  0.133333  0.200000  0.466667      8.000000
  0.200000  0.200000  0.466667      8.000000
  0.266667  0.200000  0.466667      8.000000
  0.333333  0.200000  0.466667      8.000000
  0.400000  0.200000  0.466667      8.000000
  0.466667  0.200000  0.466667      8.000000
  0.000000  0.266667  0.466667      4.000000
  0.066667  0.266667  0.466667      8.000000
  0.133333  0.266667  0.466667      8.000000
  0.200000  0.266667  0.466667      8.000000
  0.266667  0.266667  0.466667      8.000000
  0.333333  0.266667  0.466667      8.000000
  0.400000  0.266667  0.466667      8.000000
  0.466667  0.266667  0.466667      8.000000
  0.000000  0.333333  0.466667      4.000000
  0.066667  0.333333  0.466667      8.000000
  0.133333  0.333333  0.466667      8.000000
  0.200000  0.333333  0.466667      8.000000
  0.266667  0.333333  0.466667      8.000000
  0.333333  0.333333  0.466667      8.000000
  0.400000  0.333333  0.466667      8.000000
  0.466667  0.333333  0.466667      8.000000
  0.000000  0.400000  0.466667      4.000000
  0.066667  0.400000  0.466667      8.000000
  0.133333  0.400000  0.466667      8.000000
  0.200000  0.400000  0.466667      8.000000
  0.266667  0.400000  0.466667      8.000000
  0.333333  0.400000  0.466667      8.000000
  0.400000  0.400000  0.466667      8.000000
  0.466667  0.400000  0.466667      8.000000
  0.000000  0.466667  0.466667      4.000000
  0.066667  0.466667  0.466667      8.000000
  0.133333  0.466667  0.466667      8.000000
  0.200000  0.466667  0.466667      8.000000
  0.266667  0.466667  0.466667      8.000000
  0.333333  0.466667  0.466667      8.000000
  0.400000  0.466667  0.466667      8.000000
  0.466667  0.466667  0.466667      8.000000
 
 Following cartesian coordinates:
            Coordinates               Weight
  0.000000  0.000000  0.000000      1.000000
  0.008920  0.000000  0.000000      2.000000
  0.017841  0.000000  0.000000      2.000000
  0.026761  0.000000  0.000000      2.000000
  0.035682  0.000000  0.000000      2.000000
  0.044602  0.000000  0.000000      2.000000
  0.053523  0.000000  0.000000      2.000000
  0.062443  0.000000  0.000000      2.000000
  0.000000  0.008970  0.000000      2.000000
  0.008920  0.008970  0.000000      4.000000
  0.017841  0.008970  0.000000      4.000000
  0.026761  0.008970  0.000000      4.000000
  0.035682  0.008970  0.000000      4.000000
  0.044602  0.008970  0.000000      4.000000
  0.053523  0.008970  0.000000      4.000000
  0.062443  0.008970  0.000000      4.000000
  0.000000  0.017939  0.000000      2.000000
  0.008920  0.017939  0.000000      4.000000
  0.017841  0.017939  0.000000      4.000000
  0.026761  0.017939  0.000000      4.000000
  0.035682  0.017939  0.000000      4.000000
  0.044602  0.017939  0.000000      4.000000
  0.053523  0.017939  0.000000      4.000000
  0.062443  0.017939  0.000000      4.000000
  0.000000  0.026909  0.000000      2.000000
  0.008920  0.026909  0.000000      4.000000
  0.017841  0.026909  0.000000      4.000000
  0.026761  0.026909  0.000000      4.000000
  0.035682  0.026909  0.000000      4.000000
  0.044602  0.026909  0.000000      4.000000
  0.053523  0.026909  0.000000      4.000000
  0.062443  0.026909  0.000000      4.000000
  0.000000  0.035878  0.000000      2.000000
  0.008920  0.035878  0.000000      4.000000
  0.017841  0.035878  0.000000      4.000000
  0.026761  0.035878  0.000000      4.000000
  0.035682  0.035878  0.000000      4.000000
  0.044602  0.035878  0.000000      4.000000
  0.053523  0.035878  0.000000      4.000000
  0.062443  0.035878  0.000000      4.000000
  0.000000  0.044848  0.000000      2.000000
  0.008920  0.044848  0.000000      4.000000
  0.017841  0.044848  0.000000      4.000000
  0.026761  0.044848  0.000000      4.000000
  0.035682  0.044848  0.000000      4.000000
  0.044602  0.044848  0.000000      4.000000
  0.053523  0.044848  0.000000      4.000000
  0.062443  0.044848  0.000000      4.000000
  0.000000  0.053817  0.000000      2.000000
  0.008920  0.053817  0.000000      4.000000
  0.017841  0.053817  0.000000      4.000000
  0.026761  0.053817  0.000000      4.000000
  0.035682  0.053817  0.000000      4.000000
  0.044602  0.053817  0.000000      4.000000
  0.053523  0.053817  0.000000      4.000000
  0.062443  0.053817  0.000000      4.000000
  0.000000  0.062787  0.000000      2.000000
  0.008920  0.062787  0.000000      4.000000
  0.017841  0.062787  0.000000      4.000000
  0.026761  0.062787  0.000000      4.000000
  0.035682  0.062787  0.000000      4.000000
  0.044602  0.062787  0.000000      4.000000
  0.053523  0.062787  0.000000      4.000000
  0.062443  0.062787  0.000000      4.000000
  0.000000  0.000000  0.017752      2.000000
  0.008920  0.000000  0.017752      4.000000
  0.017841  0.000000  0.017752      4.000000
  0.026761  0.000000  0.017752      4.000000
  0.035682  0.000000  0.017752      4.000000
  0.044602  0.000000  0.017752      4.000000
  0.053523  0.000000  0.017752      4.000000
  0.062443  0.000000  0.017752      4.000000
  0.000000  0.008970  0.017752      4.000000
  0.008920  0.008970  0.017752      8.000000
  0.017841  0.008970  0.017752      8.000000
  0.026761  0.008970  0.017752      8.000000
  0.035682  0.008970  0.017752      8.000000
  0.044602  0.008970  0.017752      8.000000
  0.053523  0.008970  0.017752      8.000000
  0.062443  0.008970  0.017752      8.000000
  0.000000  0.017939  0.017752      4.000000
  0.008920  0.017939  0.017752      8.000000
  0.017841  0.017939  0.017752      8.000000
  0.026761  0.017939  0.017752      8.000000
  0.035682  0.017939  0.017752      8.000000
  0.044602  0.017939  0.017752      8.000000
  0.053523  0.017939  0.017752      8.000000
  0.062443  0.017939  0.017752      8.000000
  0.000000  0.026909  0.017752      4.000000
  0.008920  0.026909  0.017752      8.000000
  0.017841  0.026909  0.017752      8.000000
  0.026761  0.026909  0.017752      8.000000
  0.035682  0.026909  0.017752      8.000000
  0.044602  0.026909  0.017752      8.000000
  0.053523  0.026909  0.017752      8.000000
  0.062443  0.026909  0.017752      8.000000
  0.000000  0.035878  0.017752      4.000000
  0.008920  0.035878  0.017752      8.000000
  0.017841  0.035878  0.017752      8.000000
  0.026761  0.035878  0.017752      8.000000
  0.035682  0.035878  0.017752      8.000000
  0.044602  0.035878  0.017752      8.000000
  0.053523  0.035878  0.017752      8.000000
  0.062443  0.035878  0.017752      8.000000
  0.000000  0.044848  0.017752      4.000000
  0.008920  0.044848  0.017752      8.000000
  0.017841  0.044848  0.017752      8.000000
  0.026761  0.044848  0.017752      8.000000
  0.035682  0.044848  0.017752      8.000000
  0.044602  0.044848  0.017752      8.000000
  0.053523  0.044848  0.017752      8.000000
  0.062443  0.044848  0.017752      8.000000
  0.000000  0.053817  0.017752      4.000000
  0.008920  0.053817  0.017752      8.000000
  0.017841  0.053817  0.017752      8.000000
  0.026761  0.053817  0.017752      8.000000
  0.035682  0.053817  0.017752      8.000000
  0.044602  0.053817  0.017752      8.000000
  0.053523  0.053817  0.017752      8.000000
  0.062443  0.053817  0.017752      8.000000
  0.000000  0.062787  0.017752      4.000000
  0.008920  0.062787  0.017752      8.000000
  0.017841  0.062787  0.017752      8.000000
  0.026761  0.062787  0.017752      8.000000
  0.035682  0.062787  0.017752      8.000000
  0.044602  0.062787  0.017752      8.000000
  0.053523  0.062787  0.017752      8.000000
  0.062443  0.062787  0.017752      8.000000
  0.000000  0.000000  0.035505      2.000000
  0.008920  0.000000  0.035505      4.000000
  0.017841  0.000000  0.035505      4.000000
  0.026761  0.000000  0.035505      4.000000
  0.035682  0.000000  0.035505      4.000000
  0.044602  0.000000  0.035505      4.000000
  0.053523  0.000000  0.035505      4.000000
  0.062443  0.000000  0.035505      4.000000
  0.000000  0.008970  0.035505      4.000000
  0.008920  0.008970  0.035505      8.000000
  0.017841  0.008970  0.035505      8.000000
  0.026761  0.008970  0.035505      8.000000
  0.035682  0.008970  0.035505      8.000000
  0.044602  0.008970  0.035505      8.000000
  0.053523  0.008970  0.035505      8.000000
  0.062443  0.008970  0.035505      8.000000
  0.000000  0.017939  0.035505      4.000000
  0.008920  0.017939  0.035505      8.000000
  0.017841  0.017939  0.035505      8.000000
  0.026761  0.017939  0.035505      8.000000
  0.035682  0.017939  0.035505      8.000000
  0.044602  0.017939  0.035505      8.000000
  0.053523  0.017939  0.035505      8.000000
  0.062443  0.017939  0.035505      8.000000
  0.000000  0.026909  0.035505      4.000000
  0.008920  0.026909  0.035505      8.000000
  0.017841  0.026909  0.035505      8.000000
  0.026761  0.026909  0.035505      8.000000
  0.035682  0.026909  0.035505      8.000000
  0.044602  0.026909  0.035505      8.000000
  0.053523  0.026909  0.035505      8.000000
  0.062443  0.026909  0.035505      8.000000
  0.000000  0.035878  0.035505      4.000000
  0.008920  0.035878  0.035505      8.000000
  0.017841  0.035878  0.035505      8.000000
  0.026761  0.035878  0.035505      8.000000
  0.035682  0.035878  0.035505      8.000000
  0.044602  0.035878  0.035505      8.000000
  0.053523  0.035878  0.035505      8.000000
  0.062443  0.035878  0.035505      8.000000
  0.000000  0.044848  0.035505      4.000000
  0.008920  0.044848  0.035505      8.000000
  0.017841  0.044848  0.035505      8.000000
  0.026761  0.044848  0.035505      8.000000
  0.035682  0.044848  0.035505      8.000000
  0.044602  0.044848  0.035505      8.000000
  0.053523  0.044848  0.035505      8.000000
  0.062443  0.044848  0.035505      8.000000
  0.000000  0.053817  0.035505      4.000000
  0.008920  0.053817  0.035505      8.000000
  0.017841  0.053817  0.035505      8.000000
  0.026761  0.053817  0.035505      8.000000
  0.035682  0.053817  0.035505      8.000000
  0.044602  0.053817  0.035505      8.000000
  0.053523  0.053817  0.035505      8.000000
  0.062443  0.053817  0.035505      8.000000
  0.000000  0.062787  0.035505      4.000000
  0.008920  0.062787  0.035505      8.000000
  0.017841  0.062787  0.035505      8.000000
  0.026761  0.062787  0.035505      8.000000
  0.035682  0.062787  0.035505      8.000000
  0.044602  0.062787  0.035505      8.000000
  0.053523  0.062787  0.035505      8.000000
  0.062443  0.062787  0.035505      8.000000
  0.000000  0.000000  0.053257      2.000000
  0.008920  0.000000  0.053257      4.000000
  0.017841  0.000000  0.053257      4.000000
  0.026761  0.000000  0.053257      4.000000
  0.035682  0.000000  0.053257      4.000000
  0.044602  0.000000  0.053257      4.000000
  0.053523  0.000000  0.053257      4.000000
  0.062443  0.000000  0.053257      4.000000
  0.000000  0.008970  0.053257      4.000000
  0.008920  0.008970  0.053257      8.000000
  0.017841  0.008970  0.053257      8.000000
  0.026761  0.008970  0.053257      8.000000
  0.035682  0.008970  0.053257      8.000000
  0.044602  0.008970  0.053257      8.000000
  0.053523  0.008970  0.053257      8.000000
  0.062443  0.008970  0.053257      8.000000
  0.000000  0.017939  0.053257      4.000000
  0.008920  0.017939  0.053257      8.000000
  0.017841  0.017939  0.053257      8.000000
  0.026761  0.017939  0.053257      8.000000
  0.035682  0.017939  0.053257      8.000000
  0.044602  0.017939  0.053257      8.000000
  0.053523  0.017939  0.053257      8.000000
  0.062443  0.017939  0.053257      8.000000
  0.000000  0.026909  0.053257      4.000000
  0.008920  0.026909  0.053257      8.000000
  0.017841  0.026909  0.053257      8.000000
  0.026761  0.026909  0.053257      8.000000
  0.035682  0.026909  0.053257      8.000000
  0.044602  0.026909  0.053257      8.000000
  0.053523  0.026909  0.053257      8.000000
  0.062443  0.026909  0.053257      8.000000
  0.000000  0.035878  0.053257      4.000000
  0.008920  0.035878  0.053257      8.000000
  0.017841  0.035878  0.053257      8.000000
  0.026761  0.035878  0.053257      8.000000
  0.035682  0.035878  0.053257      8.000000
  0.044602  0.035878  0.053257      8.000000
  0.053523  0.035878  0.053257      8.000000
  0.062443  0.035878  0.053257      8.000000
  0.000000  0.044848  0.053257      4.000000
  0.008920  0.044848  0.053257      8.000000
  0.017841  0.044848  0.053257      8.000000
  0.026761  0.044848  0.053257      8.000000
  0.035682  0.044848  0.053257      8.000000
  0.044602  0.044848  0.053257      8.000000
  0.053523  0.044848  0.053257      8.000000
  0.062443  0.044848  0.053257      8.000000
  0.000000  0.053817  0.053257      4.000000
  0.008920  0.053817  0.053257      8.000000
  0.017841  0.053817  0.053257      8.000000
  0.026761  0.053817  0.053257      8.000000
  0.035682  0.053817  0.053257      8.000000
  0.044602  0.053817  0.053257      8.000000
  0.053523  0.053817  0.053257      8.000000
  0.062443  0.053817  0.053257      8.000000
  0.000000  0.062787  0.053257      4.000000
  0.008920  0.062787  0.053257      8.000000
  0.017841  0.062787  0.053257      8.000000
  0.026761  0.062787  0.053257      8.000000
  0.035682  0.062787  0.053257      8.000000
  0.044602  0.062787  0.053257      8.000000
  0.053523  0.062787  0.053257      8.000000
  0.062443  0.062787  0.053257      8.000000
  0.000000  0.000000  0.071009      2.000000
  0.008920  0.000000  0.071009      4.000000
  0.017841  0.000000  0.071009      4.000000
  0.026761  0.000000  0.071009      4.000000
  0.035682  0.000000  0.071009      4.000000
  0.044602  0.000000  0.071009      4.000000
  0.053523  0.000000  0.071009      4.000000
  0.062443  0.000000  0.071009      4.000000
  0.000000  0.008970  0.071009      4.000000
  0.008920  0.008970  0.071009      8.000000
  0.017841  0.008970  0.071009      8.000000
  0.026761  0.008970  0.071009      8.000000
  0.035682  0.008970  0.071009      8.000000
  0.044602  0.008970  0.071009      8.000000
  0.053523  0.008970  0.071009      8.000000
  0.062443  0.008970  0.071009      8.000000
  0.000000  0.017939  0.071009      4.000000
  0.008920  0.017939  0.071009      8.000000
  0.017841  0.017939  0.071009      8.000000
  0.026761  0.017939  0.071009      8.000000
  0.035682  0.017939  0.071009      8.000000
  0.044602  0.017939  0.071009      8.000000
  0.053523  0.017939  0.071009      8.000000
  0.062443  0.017939  0.071009      8.000000
  0.000000  0.026909  0.071009      4.000000
  0.008920  0.026909  0.071009      8.000000
  0.017841  0.026909  0.071009      8.000000
  0.026761  0.026909  0.071009      8.000000
  0.035682  0.026909  0.071009      8.000000
  0.044602  0.026909  0.071009      8.000000
  0.053523  0.026909  0.071009      8.000000
  0.062443  0.026909  0.071009      8.000000
  0.000000  0.035878  0.071009      4.000000
  0.008920  0.035878  0.071009      8.000000
  0.017841  0.035878  0.071009      8.000000
  0.026761  0.035878  0.071009      8.000000
  0.035682  0.035878  0.071009      8.000000
  0.044602  0.035878  0.071009      8.000000
  0.053523  0.035878  0.071009      8.000000
  0.062443  0.035878  0.071009      8.000000
  0.000000  0.044848  0.071009      4.000000
  0.008920  0.044848  0.071009      8.000000
  0.017841  0.044848  0.071009      8.000000
  0.026761  0.044848  0.071009      8.000000
  0.035682  0.044848  0.071009      8.000000
  0.044602  0.044848  0.071009      8.000000
  0.053523  0.044848  0.071009      8.000000
  0.062443  0.044848  0.071009      8.000000
  0.000000  0.053817  0.071009      4.000000
  0.008920  0.053817  0.071009      8.000000
  0.017841  0.053817  0.071009      8.000000
  0.026761  0.053817  0.071009      8.000000
  0.035682  0.053817  0.071009      8.000000
  0.044602  0.053817  0.071009      8.000000
  0.053523  0.053817  0.071009      8.000000
  0.062443  0.053817  0.071009      8.000000
  0.000000  0.062787  0.071009      4.000000
  0.008920  0.062787  0.071009      8.000000
  0.017841  0.062787  0.071009      8.000000
  0.026761  0.062787  0.071009      8.000000
  0.035682  0.062787  0.071009      8.000000
  0.044602  0.062787  0.071009      8.000000
  0.053523  0.062787  0.071009      8.000000
  0.062443  0.062787  0.071009      8.000000
  0.000000  0.000000  0.088762      2.000000
  0.008920  0.000000  0.088762      4.000000
  0.017841  0.000000  0.088762      4.000000
  0.026761  0.000000  0.088762      4.000000
  0.035682  0.000000  0.088762      4.000000
  0.044602  0.000000  0.088762      4.000000
  0.053523  0.000000  0.088762      4.000000
  0.062443  0.000000  0.088762      4.000000
  0.000000  0.008970  0.088762      4.000000
  0.008920  0.008970  0.088762      8.000000
  0.017841  0.008970  0.088762      8.000000
  0.026761  0.008970  0.088762      8.000000
  0.035682  0.008970  0.088762      8.000000
  0.044602  0.008970  0.088762      8.000000
  0.053523  0.008970  0.088762      8.000000
  0.062443  0.008970  0.088762      8.000000
  0.000000  0.017939  0.088762      4.000000
  0.008920  0.017939  0.088762      8.000000
  0.017841  0.017939  0.088762      8.000000
  0.026761  0.017939  0.088762      8.000000
  0.035682  0.017939  0.088762      8.000000
  0.044602  0.017939  0.088762      8.000000
  0.053523  0.017939  0.088762      8.000000
  0.062443  0.017939  0.088762      8.000000
  0.000000  0.026909  0.088762      4.000000
  0.008920  0.026909  0.088762      8.000000
  0.017841  0.026909  0.088762      8.000000
  0.026761  0.026909  0.088762      8.000000
  0.035682  0.026909  0.088762      8.000000
  0.044602  0.026909  0.088762      8.000000
  0.053523  0.026909  0.088762      8.000000
  0.062443  0.026909  0.088762      8.000000
  0.000000  0.035878  0.088762      4.000000
  0.008920  0.035878  0.088762      8.000000
  0.017841  0.035878  0.088762      8.000000
  0.026761  0.035878  0.088762      8.000000
  0.035682  0.035878  0.088762      8.000000
  0.044602  0.035878  0.088762      8.000000
  0.053523  0.035878  0.088762      8.000000
  0.062443  0.035878  0.088762      8.000000
  0.000000  0.044848  0.088762      4.000000
  0.008920  0.044848  0.088762      8.000000
  0.017841  0.044848  0.088762      8.000000
  0.026761  0.044848  0.088762      8.000000
  0.035682  0.044848  0.088762      8.000000
  0.044602  0.044848  0.088762      8.000000
  0.053523  0.044848  0.088762      8.000000
  0.062443  0.044848  0.088762      8.000000
  0.000000  0.053817  0.088762      4.000000
  0.008920  0.053817  0.088762      8.000000
  0.017841  0.053817  0.088762      8.000000
  0.026761  0.053817  0.088762      8.000000
  0.035682  0.053817  0.088762      8.000000
  0.044602  0.053817  0.088762      8.000000
  0.053523  0.053817  0.088762      8.000000
  0.062443  0.053817  0.088762      8.000000
  0.000000  0.062787  0.088762      4.000000
  0.008920  0.062787  0.088762      8.000000
  0.017841  0.062787  0.088762      8.000000
  0.026761  0.062787  0.088762      8.000000
  0.035682  0.062787  0.088762      8.000000
  0.044602  0.062787  0.088762      8.000000
  0.053523  0.062787  0.088762      8.000000
  0.062443  0.062787  0.088762      8.000000
  0.000000  0.000000  0.106514      2.000000
  0.008920  0.000000  0.106514      4.000000
  0.017841  0.000000  0.106514      4.000000
  0.026761  0.000000  0.106514      4.000000
  0.035682  0.000000  0.106514      4.000000
  0.044602  0.000000  0.106514      4.000000
  0.053523  0.000000  0.106514      4.000000
  0.062443  0.000000  0.106514      4.000000
  0.000000  0.008970  0.106514      4.000000
  0.008920  0.008970  0.106514      8.000000
  0.017841  0.008970  0.106514      8.000000
  0.026761  0.008970  0.106514      8.000000
  0.035682  0.008970  0.106514      8.000000
  0.044602  0.008970  0.106514      8.000000
  0.053523  0.008970  0.106514      8.000000
  0.062443  0.008970  0.106514      8.000000
  0.000000  0.017939  0.106514      4.000000
  0.008920  0.017939  0.106514      8.000000
  0.017841  0.017939  0.106514      8.000000
  0.026761  0.017939  0.106514      8.000000
  0.035682  0.017939  0.106514      8.000000
  0.044602  0.017939  0.106514      8.000000
  0.053523  0.017939  0.106514      8.000000
  0.062443  0.017939  0.106514      8.000000
  0.000000  0.026909  0.106514      4.000000
  0.008920  0.026909  0.106514      8.000000
  0.017841  0.026909  0.106514      8.000000
  0.026761  0.026909  0.106514      8.000000
  0.035682  0.026909  0.106514      8.000000
  0.044602  0.026909  0.106514      8.000000
  0.053523  0.026909  0.106514      8.000000
  0.062443  0.026909  0.106514      8.000000
  0.000000  0.035878  0.106514      4.000000
  0.008920  0.035878  0.106514      8.000000
  0.017841  0.035878  0.106514      8.000000
  0.026761  0.035878  0.106514      8.000000
  0.035682  0.035878  0.106514      8.000000
  0.044602  0.035878  0.106514      8.000000
  0.053523  0.035878  0.106514      8.000000
  0.062443  0.035878  0.106514      8.000000
  0.000000  0.044848  0.106514      4.000000
  0.008920  0.044848  0.106514      8.000000
  0.017841  0.044848  0.106514      8.000000
  0.026761  0.044848  0.106514      8.000000
  0.035682  0.044848  0.106514      8.000000
  0.044602  0.044848  0.106514      8.000000
  0.053523  0.044848  0.106514      8.000000
  0.062443  0.044848  0.106514      8.000000
  0.000000  0.053817  0.106514      4.000000
  0.008920  0.053817  0.106514      8.000000
  0.017841  0.053817  0.106514      8.000000
  0.026761  0.053817  0.106514      8.000000
  0.035682  0.053817  0.106514      8.000000
  0.044602  0.053817  0.106514      8.000000
  0.053523  0.053817  0.106514      8.000000
  0.062443  0.053817  0.106514      8.000000
  0.000000  0.062787  0.106514      4.000000
  0.008920  0.062787  0.106514      8.000000
  0.017841  0.062787  0.106514      8.000000
  0.026761  0.062787  0.106514      8.000000
  0.035682  0.062787  0.106514      8.000000
  0.044602  0.062787  0.106514      8.000000
  0.053523  0.062787  0.106514      8.000000
  0.062443  0.062787  0.106514      8.000000
  0.000000  0.000000  0.124266      2.000000
  0.008920  0.000000  0.124266      4.000000
  0.017841  0.000000  0.124266      4.000000
  0.026761  0.000000  0.124266      4.000000
  0.035682  0.000000  0.124266      4.000000
  0.044602  0.000000  0.124266      4.000000
  0.053523  0.000000  0.124266      4.000000
  0.062443  0.000000  0.124266      4.000000
  0.000000  0.008970  0.124266      4.000000
  0.008920  0.008970  0.124266      8.000000
  0.017841  0.008970  0.124266      8.000000
  0.026761  0.008970  0.124266      8.000000
  0.035682  0.008970  0.124266      8.000000
  0.044602  0.008970  0.124266      8.000000
  0.053523  0.008970  0.124266      8.000000
  0.062443  0.008970  0.124266      8.000000
  0.000000  0.017939  0.124266      4.000000
  0.008920  0.017939  0.124266      8.000000
  0.017841  0.017939  0.124266      8.000000
  0.026761  0.017939  0.124266      8.000000
  0.035682  0.017939  0.124266      8.000000
  0.044602  0.017939  0.124266      8.000000
  0.053523  0.017939  0.124266      8.000000
  0.062443  0.017939  0.124266      8.000000
  0.000000  0.026909  0.124266      4.000000
  0.008920  0.026909  0.124266      8.000000
  0.017841  0.026909  0.124266      8.000000
  0.026761  0.026909  0.124266      8.000000
  0.035682  0.026909  0.124266      8.000000
  0.044602  0.026909  0.124266      8.000000
  0.053523  0.026909  0.124266      8.000000
  0.062443  0.026909  0.124266      8.000000
  0.000000  0.035878  0.124266      4.000000
  0.008920  0.035878  0.124266      8.000000
  0.017841  0.035878  0.124266      8.000000
  0.026761  0.035878  0.124266      8.000000
  0.035682  0.035878  0.124266      8.000000
  0.044602  0.035878  0.124266      8.000000
  0.053523  0.035878  0.124266      8.000000
  0.062443  0.035878  0.124266      8.000000
  0.000000  0.044848  0.124266      4.000000
  0.008920  0.044848  0.124266      8.000000
  0.017841  0.044848  0.124266      8.000000
  0.026761  0.044848  0.124266      8.000000
  0.035682  0.044848  0.124266      8.000000
  0.044602  0.044848  0.124266      8.000000
  0.053523  0.044848  0.124266      8.000000
  0.062443  0.044848  0.124266      8.000000
  0.000000  0.053817  0.124266      4.000000
  0.008920  0.053817  0.124266      8.000000
  0.017841  0.053817  0.124266      8.000000
  0.026761  0.053817  0.124266      8.000000
  0.035682  0.053817  0.124266      8.000000
  0.044602  0.053817  0.124266      8.000000
  0.053523  0.053817  0.124266      8.000000
  0.062443  0.053817  0.124266      8.000000
  0.000000  0.062787  0.124266      4.000000
  0.008920  0.062787  0.124266      8.000000
  0.017841  0.062787  0.124266      8.000000
  0.026761  0.062787  0.124266      8.000000
  0.035682  0.062787  0.124266      8.000000
  0.044602  0.062787  0.124266      8.000000
  0.053523  0.062787  0.124266      8.000000
  0.062443  0.062787  0.124266      8.000000
 
 TETIRR: Found  10060 inequivalent tetrahedra from    20250


--------------------------------------------------------------------------------------------------------




 Dimension of arrays:
   k-points           NKPTS =    512   k-points in BZ     NKDIM =    512   number of bands    NBANDS=     72
   number of dos      NEDOS =   2000   number of ions     NIONS =     22
   non local maximal  LDIM  =      6   non local SUM 2l+1 LMDIM =     18
   total plane-waves  NPLWV = 108000
   max r-space proj   IRMAX =      1   max aug-charges    IRDMAX=  28887
   dimension x,y,z NGX =    60 NGY =   60 NGZ =   30
   dimension x,y,z NGXF=   120 NGYF=  120 NGZF=   60
   support grid    NGXF=   120 NGYF=  120 NGZF=   60
   ions per type =               2  20
 NGX,Y,Z   is equivalent  to a cutoff of  13.35, 13.42, 13.28 a.u.
 NGXF,Y,Z  is equivalent  to a cutoff of  26.69, 26.84, 26.56 a.u.


 I would recommend the setting:
   dimension x,y,z NGX =    60 NGY =   59 NGZ =   30
 SYSTEM =  SG29HfO2                                
 POSCAR =  SG44HfN10_0GPa_conventionalcell\(2)     

 Startparameter for this run:
   NWRITE =      2    write-flag & timer
   PREC   = accura    normal or accurate (medium, high low for compatibility)
   ISTART =      1    job   : 0-new  1-cont  2-samecut
   ICHARG =     11    charge: 1-file 2-atom 10-const
   ISPIN  =      1    spin polarized calculation?
   LNONCOLLINEAR =      F non collinear calculations
   LSORBIT =      F    spin-orbit coupling
   INIWAV =      1    electr: 0-lowe 1-rand  2-diag
   LASPH  =      F    aspherical Exc in radial PAW
   METAGGA=      F    non-selfconsistent MetaGGA calc.

 Electronic Relaxation 1
   ENCUT  =  600.0 eV  44.10 Ry    6.64 a.u.  14.93 14.84  7.50*2*pi/ulx,y,z
   ENINI  =  600.0     initial cutoff
   ENAUG  =  627.1 eV  augmentation charge cutoff
   NELM   =     60;   NELMIN=  2; NELMDL=  0     # of ELM steps 
   EDIFF  = 0.1E-06   stopping-criterion for ELM
   LREAL  =      F    real-space projection
   NLSPLINE    = F    spline interpolate recip. space projectors
   LCOMPAT=      F    compatible to vasp.4.4
   GGA_COMPAT  = T    GGA compatible to vasp.4.4-vasp.4.6
   LMAXPAW     = -100 max onsite density
   LMAXMIX     =    2 max onsite mixed and CHGCAR
   VOSKOWN=      0    Vosko Wilk Nusair interpolation
   ROPT   =    0.00000   0.00000
 Ionic relaxation
   EDIFFG = 0.1E-05   stopping-criterion for IOM
   NSW    =      0    number of steps for IOM
   NBLOCK =      1;   KBLOCK =      1    inner block; outer block 
   IBRION =     -1    ionic relax: 0-MD 1-quasi-New 2-CG
   NFREE  =      0    steps in history (QN), initial steepest desc. (CG)
   ISIF   =      2    stress and relaxation
   IWAVPR =     10    prediction:  0-non 1-charg 2-wave 3-comb
   ISYM   =      2    0-nonsym 1-usesym 2-fastsym
   LCORR  =      T    Harris-Foulkes like correction to forces

   POTIM  = 0.5000    time-step for ionic-motion
   TEIN   =    0.0    initial temperature
   TEBEG  =    0.0;   TEEND  =   0.0 temperature during run
   SMASS  =  -3.00    Nose mass-parameter (am)
   estimated Nose-frequenzy (Omega)   =  0.10E-29 period in steps =****** mass=  -0.128E-26a.u.
   SCALEE = 1.0000    scale energy and forces
   NPACO  =    256;   APACO  = 16.0  distance and # of slots for P.C.
   PSTRESS=    0.0 pullay stress

  Mass of Ions in am
   POMASS = 178.49 14.00
  Ionic Valenz
   ZVAL   =  10.00  5.00
  Atomic Wigner-Seitz radii
   RWIGS  =  -1.00 -1.00
  virtual crystal weights 
   VCA    =   1.00  1.00
   NELECT =     120.0000    total number of electrons
   NUPDOWN=      -1.0000    fix difference up-down

 DOS related values:
   EMIN   =  10.00;   EMAX   =-10.00  energy-range for DOS
   EFERMI =   0.00
   ISMEAR =    -5;   SIGMA  =   0.20  broadening in eV -4-tet -1-fermi 0-gaus

 Electronic relaxation 2 (details)
   IALGO  =     38    algorithm
   LDIAG  =      T    sub-space diagonalisation (order eigenvalues)
   LSUBROT=      T    optimize rotation matrix (better conditioning)
   TURBO    =      0    0=normal 1=particle mesh
   IRESTART =      0    0=no restart 2=restart with 2 vectors
   NREBOOT  =      0    no. of reboots
   NMIN     =      0    reboot dimension
   EREF     =   0.00    reference energy to select bands
   IMIX   =      4    mixing-type and parameters
     AMIX     =   0.40;   BMIX     =  1.00
     AMIX_MAG =   1.60;   BMIX_MAG =  1.00
     AMIN     =   0.10
     WC   =   100.;   INIMIX=   1;  MIXPRE=   1;  MAXMIX= -45

 Intra band minimization:
   WEIMIN = 0.0000     energy-eigenvalue tresh-hold
   EBREAK =  0.35E-09  absolut break condition
   DEPER  =   0.30     relativ break condition  

   TIME   =   0.40     timestep for ELM

  volume/ion in A,a.u.               =       9.48        63.99
  Fermi-wavevector in a.u.,A,eV,Ry     =   1.361541  2.572939 25.222386  1.853793
  Thomas-Fermi vector in A             =   2.488108
 
 Write flags
   LWAVE  =      T    write WAVECAR
   LCHARG =      T    write CHGCAR
   LVTOT  =      F    write LOCPOT, total local potential
   LVHAR  =      F    write LOCPOT, Hartree potential only
   LELF   =      F    write electronic localiz. function (ELF)
   LORBIT =     11    0 simple, 1 ext, 2 COOP (PROOUT)


 Dipole corrections
   LMONO  =      F    monopole corrections only (constant potential shift)
   LDIPOL =      F    correct potential (dipole corrections)
   IDIPOL =      0    1-x, 2-y, 3-z, 4-all directions 
   EPSILON=  1.0000000 bulk dielectric constant

 Exchange correlation treatment:
   GGA     =    --    GGA type
   LEXCH   =     8    internal setting for exchange type
   VOSKOWN=      0    Vosko Wilk Nusair interpolation
   LHFCALC =     F    Hartree Fock is set to
   LHFONE  =     F    Hartree Fock one center treatment
   AEXX    =    0.0000 exact exchange contribution

 Linear response parameters
   LEPSILON=     F    determine dielectric tensor
   LRPA    =     F    only Hartree local field effects (RPA)
   LNABLA  =     F    use nabla operator in PAW spheres
   LVEL    =     F    velocity operator in full k-point grid
   LINTERFAST=   F  fast interpolation
   KINTER  =     0    interpolate to denser k-point grid
   CSHIFT  =0.1000    complex shift for real part using Kramers Kronig
   OMEGAMAX=  -1.0    maximum frequency
   DEG_THRESHOLD= 0.2000000E-02 threshold for treating states as degnerate
   RTIME   =    0.100 relaxation time in fs

 Orbital magnetization related:
   ORBITALMAG=     F  switch on orbital magnetization
   LCHIMAG   =     F  perturbation theory with respect to B field
   DQ        =  0.001000  dq finite difference perturbation B field



--------------------------------------------------------------------------------------------------------


 Static calculation
 charge density and potential remain constant during run
 non-spin polarized calculation
 Variant of blocked Davidson
 Davidson routine will perform the subspace rotation
 perform sub-space diagonalisation
    after iterative eigenvector-optimisation
 no mixing
 using additional bands           12
 reciprocal scheme for non local part
 use partial core corrections
 calculate Harris-corrections to forces 
   (improved forces if not selfconsistent)
 use gradient corrections 
 WARNING: stress and forces are not correct
  (second derivative of E(xc) not defined)
 use of overlap-Matrix (Vanderbilt PP)
 Fermi weights with tetrahedron method with Bloechl corrections


--------------------------------------------------------------------------------------------------------


  energy-cutoff  :      600.00
  volume of cell :      208.60
      direct lattice vectors                 reciprocal lattice vectors
     7.473438017  0.000000000  0.000000000     0.133807225  0.000000000  0.000000000
     0.000000000  7.432578968  0.000000000     0.000000000  0.134542802  0.000000000
     0.000000000  0.000000000  3.755379922     0.000000000  0.000000000  0.266284643

  length of vectors
     7.473438017  7.432578968  3.755379922     0.133807225  0.134542802  0.266284643


 
 old parameters found on file WAVECAR:
  energy-cutoff  :      600.00
  volume of cell :      208.60
      direct lattice vectors                 reciprocal lattice vectors
     7.473438017  0.000000000  0.000000000     0.133807225  0.000000000  0.000000000
     0.000000000  7.432578968  0.000000000     0.000000000  0.134542802  0.000000000
     0.000000000  0.000000000  3.755379922     0.000000000  0.000000000  0.266284643

  length of vectors

 
 k-points in units of 2pi/SCALE and weight: Automatic generation                    
   0.00000000  0.00000000  0.00000000       0.000
   0.00892048  0.00000000  0.00000000       0.001
   0.01784096  0.00000000  0.00000000       0.001
   0.02676144  0.00000000  0.00000000       0.001
   0.03568193  0.00000000  0.00000000       0.001
   0.04460241  0.00000000  0.00000000       0.001
   0.05352289  0.00000000  0.00000000       0.001
   0.06244337  0.00000000  0.00000000       0.001
   0.00000000  0.00896952  0.00000000       0.001
   0.00892048  0.00896952  0.00000000       0.001
   0.01784096  0.00896952  0.00000000       0.001
   0.02676144  0.00896952  0.00000000       0.001
   0.03568193  0.00896952  0.00000000       0.001
   0.04460241  0.00896952  0.00000000       0.001
   0.05352289  0.00896952  0.00000000       0.001
   0.06244337  0.00896952  0.00000000       0.001
   0.00000000  0.01793904  0.00000000       0.001
   0.00892048  0.01793904  0.00000000       0.001
   0.01784096  0.01793904  0.00000000       0.001
   0.02676144  0.01793904  0.00000000       0.001
   0.03568193  0.01793904  0.00000000       0.001
   0.04460241  0.01793904  0.00000000       0.001
   0.05352289  0.01793904  0.00000000       0.001
   0.06244337  0.01793904  0.00000000       0.001
   0.00000000  0.02690856  0.00000000       0.001
   0.00892048  0.02690856  0.00000000       0.001
   0.01784096  0.02690856  0.00000000       0.001
   0.02676144  0.02690856  0.00000000       0.001
   0.03568193  0.02690856  0.00000000       0.001
   0.04460241  0.02690856  0.00000000       0.001
   0.05352289  0.02690856  0.00000000       0.001
   0.06244337  0.02690856  0.00000000       0.001
   0.00000000  0.03587808  0.00000000       0.001
   0.00892048  0.03587808  0.00000000       0.001
   0.01784096  0.03587808  0.00000000       0.001
   0.02676144  0.03587808  0.00000000       0.001
   0.03568193  0.03587808  0.00000000       0.001
   0.04460241  0.03587808  0.00000000       0.001
   0.05352289  0.03587808  0.00000000       0.001
   0.06244337  0.03587808  0.00000000       0.001
   0.00000000  0.04484760  0.00000000       0.001
   0.00892048  0.04484760  0.00000000       0.001
   0.01784096  0.04484760  0.00000000       0.001
   0.02676144  0.04484760  0.00000000       0.001
   0.03568193  0.04484760  0.00000000       0.001
   0.04460241  0.04484760  0.00000000       0.001
   0.05352289  0.04484760  0.00000000       0.001
   0.06244337  0.04484760  0.00000000       0.001
   0.00000000  0.05381712  0.00000000       0.001
   0.00892048  0.05381712  0.00000000       0.001
   0.01784096  0.05381712  0.00000000       0.001
   0.02676144  0.05381712  0.00000000       0.001
   0.03568193  0.05381712  0.00000000       0.001
   0.04460241  0.05381712  0.00000000       0.001
   0.05352289  0.05381712  0.00000000       0.001
   0.06244337  0.05381712  0.00000000       0.001
   0.00000000  0.06278664  0.00000000       0.001
   0.00892048  0.06278664  0.00000000       0.001
   0.01784096  0.06278664  0.00000000       0.001
   0.02676144  0.06278664  0.00000000       0.001
   0.03568193  0.06278664  0.00000000       0.001
   0.04460241  0.06278664  0.00000000       0.001
   0.05352289  0.06278664  0.00000000       0.001
   0.06244337  0.06278664  0.00000000       0.001
   0.00000000  0.00000000  0.01775231       0.001
   0.00892048  0.00000000  0.01775231       0.001
   0.01784096  0.00000000  0.01775231       0.001
   0.02676144  0.00000000  0.01775231       0.001
   0.03568193  0.00000000  0.01775231       0.001
   0.04460241  0.00000000  0.01775231       0.001
   0.05352289  0.00000000  0.01775231       0.001
   0.06244337  0.00000000  0.01775231       0.001
   0.00000000  0.00896952  0.01775231       0.001
   0.00892048  0.00896952  0.01775231       0.002
   0.01784096  0.00896952  0.01775231       0.002
   0.02676144  0.00896952  0.01775231       0.002
   0.03568193  0.00896952  0.01775231       0.002
   0.04460241  0.00896952  0.01775231       0.002
   0.05352289  0.00896952  0.01775231       0.002
   0.06244337  0.00896952  0.01775231       0.002
   0.00000000  0.01793904  0.01775231       0.001
   0.00892048  0.01793904  0.01775231       0.002
   0.01784096  0.01793904  0.01775231       0.002
   0.02676144  0.01793904  0.01775231       0.002
   0.03568193  0.01793904  0.01775231       0.002
   0.04460241  0.01793904  0.01775231       0.002
   0.05352289  0.01793904  0.01775231       0.002
   0.06244337  0.01793904  0.01775231       0.002
   0.00000000  0.02690856  0.01775231       0.001
   0.00892048  0.02690856  0.01775231       0.002
   0.01784096  0.02690856  0.01775231       0.002
   0.02676144  0.02690856  0.01775231       0.002
   0.03568193  0.02690856  0.01775231       0.002
   0.04460241  0.02690856  0.01775231       0.002
   0.05352289  0.02690856  0.01775231       0.002
   0.06244337  0.02690856  0.01775231       0.002
   0.00000000  0.03587808  0.01775231       0.001
   0.00892048  0.03587808  0.01775231       0.002
   0.01784096  0.03587808  0.01775231       0.002
   0.02676144  0.03587808  0.01775231       0.002
   0.03568193  0.03587808  0.01775231       0.002
   0.04460241  0.03587808  0.01775231       0.002
   0.05352289  0.03587808  0.01775231       0.002
   0.06244337  0.03587808  0.01775231       0.002
   0.00000000  0.04484760  0.01775231       0.001
   0.00892048  0.04484760  0.01775231       0.002
   0.01784096  0.04484760  0.01775231       0.002
   0.02676144  0.04484760  0.01775231       0.002
   0.03568193  0.04484760  0.01775231       0.002
   0.04460241  0.04484760  0.01775231       0.002
   0.05352289  0.04484760  0.01775231       0.002
   0.06244337  0.04484760  0.01775231       0.002
   0.00000000  0.05381712  0.01775231       0.001
   0.00892048  0.05381712  0.01775231       0.002
   0.01784096  0.05381712  0.01775231       0.002
   0.02676144  0.05381712  0.01775231       0.002
   0.03568193  0.05381712  0.01775231       0.002
   0.04460241  0.05381712  0.01775231       0.002
   0.05352289  0.05381712  0.01775231       0.002
   0.06244337  0.05381712  0.01775231       0.002
   0.00000000  0.06278664  0.01775231       0.001
   0.00892048  0.06278664  0.01775231       0.002
   0.01784096  0.06278664  0.01775231       0.002
   0.02676144  0.06278664  0.01775231       0.002
   0.03568193  0.06278664  0.01775231       0.002
   0.04460241  0.06278664  0.01775231       0.002
   0.05352289  0.06278664  0.01775231       0.002
   0.06244337  0.06278664  0.01775231       0.002
   0.00000000  0.00000000  0.03550462       0.001
   0.00892048  0.00000000  0.03550462       0.001
   0.01784096  0.00000000  0.03550462       0.001
   0.02676144  0.00000000  0.03550462       0.001
   0.03568193  0.00000000  0.03550462       0.001
   0.04460241  0.00000000  0.03550462       0.001
   0.05352289  0.00000000  0.03550462       0.001
   0.06244337  0.00000000  0.03550462       0.001
   0.00000000  0.00896952  0.03550462       0.001
   0.00892048  0.00896952  0.03550462       0.002
   0.01784096  0.00896952  0.03550462       0.002
   0.02676144  0.00896952  0.03550462       0.002
   0.03568193  0.00896952  0.03550462       0.002
   0.04460241  0.00896952  0.03550462       0.002
   0.05352289  0.00896952  0.03550462       0.002
   0.06244337  0.00896952  0.03550462       0.002
   0.00000000  0.01793904  0.03550462       0.001
   0.00892048  0.01793904  0.03550462       0.002
   0.01784096  0.01793904  0.03550462       0.002
   0.02676144  0.01793904  0.03550462       0.002
   0.03568193  0.01793904  0.03550462       0.002
   0.04460241  0.01793904  0.03550462       0.002
   0.05352289  0.01793904  0.03550462       0.002
   0.06244337  0.01793904  0.03550462       0.002
   0.00000000  0.02690856  0.03550462       0.001
   0.00892048  0.02690856  0.03550462       0.002
   0.01784096  0.02690856  0.03550462       0.002
   0.02676144  0.02690856  0.03550462       0.002
   0.03568193  0.02690856  0.03550462       0.002
   0.04460241  0.02690856  0.03550462       0.002
   0.05352289  0.02690856  0.03550462       0.002
   0.06244337  0.02690856  0.03550462       0.002
   0.00000000  0.03587808  0.03550462       0.001
   0.00892048  0.03587808  0.03550462       0.002
   0.01784096  0.03587808  0.03550462       0.002
   0.02676144  0.03587808  0.03550462       0.002
   0.03568193  0.03587808  0.03550462       0.002
   0.04460241  0.03587808  0.03550462       0.002
   0.05352289  0.03587808  0.03550462       0.002
   0.06244337  0.03587808  0.03550462       0.002
   0.00000000  0.04484760  0.03550462       0.001
   0.00892048  0.04484760  0.03550462       0.002
   0.01784096  0.04484760  0.03550462       0.002
   0.02676144  0.04484760  0.03550462       0.002
   0.03568193  0.04484760  0.03550462       0.002
   0.04460241  0.04484760  0.03550462       0.002
   0.05352289  0.04484760  0.03550462       0.002
   0.06244337  0.04484760  0.03550462       0.002
[...]
     23      -8.6123      2.00000
     24      -8.5779      2.00000
     25      -4.4763      2.00000
     26      -4.4742      2.00000
     27      -2.9547      2.00000
     28      -2.9407      2.00000
     29      -2.5093      2.00000
     30      -2.5066      2.00000
     31      -2.1644      2.00000
     32      -2.1396      2.00000
     33      -2.0941      2.00000
     34      -2.0766      2.00000
     35      -1.8639      2.00000
     36      -1.8547      2.00000
     37      -1.6369      2.00000
     38      -1.6260      2.00000
     39      -1.3939      2.00000
     40      -1.3835      2.00000
     41      -1.1698      2.00000
     42      -1.1444      2.00000
     43      -0.4746      2.00000
     44      -0.4586      2.00000
     45      -0.3277      2.00000
     46      -0.3203      2.00000
     47      -0.1779      2.00000
     48      -0.1743      2.00000
     49       0.1265      2.00000
     50       0.1860      2.00000
     51       0.3231      2.00000
     52       0.4040      2.00000
     53       0.7040      2.00000
     54       0.7307      2.00000
     55       1.2526      2.00000
     56       1.2537      2.00000
     57       4.3291      2.00000
     58       4.3528      2.00000
     59       5.8003     -0.15057
     60       5.8235     -0.03188
     61       6.2084      0.00000
     62       6.2562      0.00000
     63       6.6315      0.00000
     64       6.6792      0.00000
     65       7.6972      0.00000
     66       7.6991      0.00000
     67       7.7191      0.00000
     68       7.7212      0.00000
     69       7.9384      0.00000
     70       7.9385      0.00000
     71       9.5373      0.00000
     72       9.5383      0.00000

 k-point 512 :       0.4667    0.4667    0.4667
  band No.  band energies     occupation 
      1     -26.2926      2.00000
      2     -26.2926      2.00000
      3     -26.2215      2.00000
      4     -26.2215      2.00000
      5     -26.2169      2.00000
      6     -26.2169      2.00000
      7     -18.1919      2.00000
      8     -18.1897      2.00000
      9     -17.9376      2.00000
     10     -17.9359      2.00000
     11     -17.7925      2.00000
     12     -17.7907      2.00000
     13     -17.4675      2.00000
     14     -17.4667      2.00000
     15     -17.4144      2.00000
     16     -17.4136      2.00000
     17      -9.2394      2.00000
     18      -9.2325      2.00000
     19      -9.1046      2.00000
     20      -9.1007      2.00000
     21      -8.6931      2.00000
     22      -8.6588      2.00000
     23      -8.6484      2.00000
     24      -8.6160      2.00000
     25      -4.4725      2.00000
     26      -4.4718      2.00000
     27      -2.9627      2.00000
     28      -2.9580      2.00000
     29      -2.5008      2.00000
     30      -2.5001      2.00000
     31      -2.1486      2.00000
     32      -2.1365      2.00000
     33      -2.0967      2.00000
     34      -2.0871      2.00000
     35      -1.8804      2.00000
     36      -1.8769      2.00000
     37      -1.6454      2.00000
     38      -1.6421      2.00000
     39      -1.3802      2.00000
     40      -1.3772      2.00000
     41      -1.1487      2.00000
     42      -1.1391      2.00000
     43      -0.4982      2.00000
     44      -0.4922      2.00000
     45      -0.3060      2.00000
     46      -0.3034      2.00000
     47      -0.1680      2.00000
     48      -0.1667      2.00000
     49       0.2045      2.00000
     50       0.2377      2.00000
     51       0.3763      2.00000
     52       0.4295      2.00000
     53       0.6079      2.00000
     54       0.6300      2.00000
     55       1.2556      2.00000
     56       1.2560      2.00000
     57       4.3459      2.00000
     58       4.3540      2.00000
     59       5.8048     -0.14951
     60       5.8128     -0.08453
     61       6.2620      0.00000
     62       6.2819      0.00000
     63       6.6057      0.00000
     64       6.6255      0.00000
     65       7.6781      0.00000
     66       7.6782      0.00000
     67       7.7190      0.00000
     68       7.7191      0.00000
     69       7.9379      0.00000
     70       7.9379      0.00000
     71       9.5637      0.00000
     72       9.5642      0.00000


--------------------------------------------------------------------------------------------------------


 soft charge-density along one line, spin component           1
         0         1         2         3         4         5         6         7         8         9
 total charge-density along one line
 
 pseudopotential strength for first ion, spin component:           1
-28.817   0.000   0.000  -0.281   0.000   0.000   0.000   0.000
  0.000 -28.824   0.000   0.000  -0.281   0.000   0.000   0.000
  0.000   0.000 -28.816   0.000   0.000  -0.281   0.000   0.000
 -0.281   0.000   0.000  -0.890   0.000   0.000   0.000   0.000
  0.000  -0.281   0.000   0.000  -0.890   0.000   0.000   0.000
  0.000   0.000  -0.281   0.000   0.000  -0.890   0.000   0.000
  0.000   0.000   0.000   0.000   0.000   0.000  -5.485   0.000
  0.000   0.000   0.000   0.000   0.000   0.000   0.000  -5.485
  0.000   0.000   0.000   0.000   0.000   0.000   0.000   0.000
  0.000   0.000   0.000   0.000   0.000   0.000   0.000   0.000
  0.000   0.000   0.000   0.000   0.000   0.000   0.000   0.000
  0.000   0.000   0.000   0.000   0.000   0.000   0.043   0.000
  0.000   0.000   0.000   0.000   0.000   0.000   0.000   0.043
  0.000   0.000   0.000   0.000   0.000   0.000   0.000   0.000
  0.000   0.000   0.000   0.000   0.000   0.000   0.000   0.000
  0.000   0.000   0.000   0.000   0.000   0.000   0.000   0.000
  0.000   0.000   0.000   0.000   0.000   0.000   0.000   0.000
  0.000   0.000   0.000   0.000   0.000   0.000   0.000   0.000
 total augmentation occupancy for first ion, spin component:           1
  2.000   0.000   0.000   0.000   0.000   0.000   0.000   0.000   0.000   0.000   0.000   0.000   0.000   0.000   0.000   0.000
  0.000   2.000   0.000   0.000   0.000   0.000   0.000   0.000   0.000   0.000   0.000   0.000   0.000   0.000   0.000   0.000
  0.000   0.000   2.000   0.000   0.000   0.000   0.000   0.000   0.000   0.000   0.000   0.000   0.000   0.000   0.000   0.000
  0.000   0.000   0.000   0.000   0.000   0.000   0.000   0.000   0.000   0.000   0.000   0.000   0.000   0.000   0.000   0.000
  0.000   0.000   0.000   0.000   0.000   0.000   0.000   0.000   0.000   0.000   0.000   0.000   0.000   0.000   0.000   0.000
  0.000   0.000   0.000   0.000   0.000   0.000   0.000   0.000   0.000   0.000   0.000   0.000   0.000   0.000   0.000   0.000
  0.000   0.000   0.000   0.000   0.000   0.000   0.600   0.000   0.000   0.000   0.000   0.000   0.000   0.000   0.000   0.000
  0.000   0.000   0.000   0.000   0.000   0.000   0.000   0.600   0.000   0.000   0.000   0.000   0.000   0.000   0.000   0.000
  0.000   0.000   0.000   0.000   0.000   0.000   0.000   0.000   0.600   0.000   0.000   0.000   0.000   0.000   0.000   0.000
  0.000   0.000   0.000   0.000   0.000   0.000   0.000   0.000   0.000   0.600   0.000   0.000   0.000   0.000   0.000   0.000
  0.000   0.000   0.000   0.000   0.000   0.000   0.000   0.000   0.000   0.000   0.600   0.000   0.000   0.000   0.000   0.000
  0.000   0.000   0.000   0.000   0.000   0.000   0.000   0.000   0.000   0.000   0.000   0.000   0.000   0.000   0.000   0.000
  0.000   0.000   0.000   0.000   0.000   0.000   0.000   0.000   0.000   0.000   0.000   0.000   0.000   0.000   0.000   0.000
  0.000   0.000   0.000   0.000   0.000   0.000   0.000   0.000   0.000   0.000   0.000   0.000   0.000   0.000   0.000   0.000
  0.000   0.000   0.000   0.000   0.000   0.000   0.000   0.000   0.000   0.000   0.000   0.000   0.000   0.000   0.000   0.000
  0.000   0.000   0.000   0.000   0.000   0.000   0.000   0.000   0.000   0.000   0.000   0.000   0.000   0.000   0.000   0.000
  0.000   0.000   0.000   0.000   0.000   0.000   0.000   0.000   0.000   0.000   0.000   0.000   0.000   0.000   0.000   0.000
  0.000   0.000   0.000   0.000   0.000   0.000   0.000   0.000   0.000   0.000   0.000   0.000   0.000   0.000   0.000   0.000


------------------------ aborting loop because EDIFF is reached ----------------------------------------


 


 total charge     
 
# of ion     s       p       d       tot
----------------------------------------
  1        0.249   6.429   1.425   8.103
  2        0.249   6.429   1.425   8.103
  3        1.245   2.585   0.000   3.830
  4        1.245   2.586   0.000   3.831
  5        1.245   2.586   0.000   3.831
  6        1.244   2.571   0.000   3.815
  7        1.245   2.585   0.000   3.830
  8        1.245   2.586   0.000   3.831
  9        1.245   2.586   0.000   3.831
 10        1.244   2.571   0.000   3.815
 11        1.245   2.586   0.000   3.831
 12        1.245   2.585   0.000   3.830
 13        1.244   2.571   0.000   3.815
 14        1.245   2.586   0.000   3.831
 15        1.245   2.586   0.000   3.831
 16        1.245   2.585   0.000   3.830
 17        1.244   2.571   0.000   3.815
 18        1.245   2.586   0.000   3.831
 19        1.376   2.498   0.000   3.874
 20        1.376   2.498   0.000   3.874
 21        1.376   2.498   0.000   3.874
 22        1.376   2.498   0.000   3.874
------------------------------------------------
tot       25.920  64.156   2.851  92.927
 
    CHARGE:  cpu time   10.41: real time   10.55
    FORLOC:  cpu time    0.01: real time    0.04
    FORNL :  cpu time   44.05: real time   44.55
    STRESS:  cpu time   81.44: real time   82.41
    FORCOR:  cpu time    0.09: real time    0.09
    FORHAR:  cpu time    0.03: real time    0.03

  FORCE on cell =-STRESS in cart. coord.  units (eV):
  Direction    XX          YY          ZZ          XY          YZ          ZX
  --------------------------------------------------------------------------------------
  Alpha Z   465.63813   465.63813   465.63813
  Ewald   -2571.75918 -2683.70563  -361.74706     0.00000     0.00004     0.00000
  Hartree   299.75005   240.75551  1091.97755     0.00000     0.00000     0.00000
  E(xc)    -509.83981  -510.18937  -502.75170     0.00000     0.00000     0.00000
  Local     318.24707   484.19482 -2438.98314     0.00000    -0.00002     0.00000
  n-local  -328.69851  -327.90065  -344.82014    -0.39159    -0.04117    -0.06571
  augment    52.91376    52.93900    48.43166     0.00000     0.00000     0.00000
  Kinetic  2273.70283  2278.01485  2042.24454     0.87627     0.10364     0.24036
  Fock        0.00000     0.00000     0.00000     0.00000     0.00000     0.00000
  -------------------------------------------------------------------------------------
  Total      -0.04566    -0.25334    -0.01016     0.00000     0.00000     0.00000
  in kB      -0.35071    -1.94584    -0.07805     0.00000     0.00000     0.00000
  external pressure =       -0.79 kB  Pullay stress =        0.00 kB


 VOLUME and BASIS-vectors are now :
 -----------------------------------------------------------------------------
  energy-cutoff  :      600.00
  volume of cell :      208.60
      direct lattice vectors                 reciprocal lattice vectors
     7.473438017  0.000000000  0.000000000     0.133807225  0.000000000  0.000000000
     0.000000000  7.432578968  0.000000000     0.000000000  0.134542802  0.000000000
     0.000000000  0.000000000  3.755379922     0.000000000  0.000000000  0.266284643

  length of vectors
     7.473438017  7.432578968  3.755379922     0.133807225  0.134542802  0.266284643


 FORCES acting on ions
    electron-ion (+dipol)            ewald-force                    non-local-force                 convergence-correction
 -----------------------------------------------------------------------------------------------
   0.809E-13 0.209E-06 0.168E-01   0.339E-14 -.497E-05 -.196E-01   0.000E+00 -.424E-21 -.158E-02   -.988E-12 0.468E-05 0.340E-02
   -.775E-14 0.961E-07 0.168E-01   0.730E-14 -.226E-05 -.196E-01   0.000E+00 -.424E-21 -.158E-02   -.106E-11 0.436E-06 0.341E-02
   -.731E+02 0.638E+02 -.482E+02   0.906E+02 -.803E+02 0.649E+02   -.174E+02 0.165E+02 -.166E+02   -.639E-01 0.543E-01 -.825E-02
   0.731E+02 -.638E+02 -.482E+02   -.906E+02 0.803E+02 0.649E+02   0.174E+02 -.165E+02 -.166E+02   0.639E-01 -.543E-01 -.825E-02
   -.731E+02 -.638E+02 -.482E+02   0.906E+02 0.803E+02 0.649E+02   -.174E+02 -.165E+02 -.166E+02   -.639E-01 -.543E-01 -.825E-02
   0.731E+02 0.638E+02 -.482E+02   -.906E+02 -.803E+02 0.649E+02   0.174E+02 0.165E+02 -.166E+02   0.639E-01 0.543E-01 -.825E-02
   -.731E+02 0.638E+02 -.482E+02   0.906E+02 -.803E+02 0.649E+02   -.174E+02 0.165E+02 -.166E+02   -.639E-01 0.544E-01 -.827E-02
   0.731E+02 -.638E+02 -.482E+02   -.906E+02 0.803E+02 0.649E+02   0.174E+02 -.165E+02 -.166E+02   0.639E-01 -.544E-01 -.827E-02
   -.731E+02 -.638E+02 -.482E+02   0.906E+02 0.803E+02 0.649E+02   -.174E+02 -.165E+02 -.166E+02   -.639E-01 -.544E-01 -.827E-02
   0.731E+02 0.638E+02 -.482E+02   -.906E+02 -.803E+02 0.649E+02   0.174E+02 0.165E+02 -.166E+02   0.639E-01 0.544E-01 -.827E-02
   -.732E+02 0.637E+02 0.482E+02   0.906E+02 -.803E+02 -.649E+02   -.174E+02 0.164E+02 0.166E+02   -.625E-01 0.532E-01 0.729E-02
   0.732E+02 -.637E+02 0.482E+02   -.906E+02 0.803E+02 -.649E+02   0.174E+02 -.164E+02 0.166E+02   0.625E-01 -.533E-01 0.729E-02
   -.732E+02 -.637E+02 0.482E+02   0.906E+02 0.803E+02 -.649E+02   -.174E+02 -.164E+02 0.166E+02   -.625E-01 -.533E-01 0.729E-02
   0.732E+02 0.637E+02 0.482E+02   -.906E+02 -.803E+02 -.649E+02   0.174E+02 0.164E+02 0.166E+02   0.625E-01 0.532E-01 0.729E-02
   -.732E+02 0.637E+02 0.482E+02   0.906E+02 -.803E+02 -.649E+02   -.174E+02 0.164E+02 0.166E+02   -.625E-01 0.533E-01 0.734E-02
   0.732E+02 -.637E+02 0.482E+02   -.906E+02 0.803E+02 -.649E+02   0.174E+02 -.164E+02 0.166E+02   0.625E-01 -.533E-01 0.734E-02
   -.732E+02 -.637E+02 0.482E+02   0.906E+02 0.803E+02 -.649E+02   -.174E+02 -.164E+02 0.166E+02   -.625E-01 -.533E-01 0.734E-02
   0.732E+02 0.637E+02 0.482E+02   -.906E+02 -.803E+02 -.649E+02   0.174E+02 0.164E+02 0.166E+02   0.625E-01 0.533E-01 0.734E-02
   0.572E-15 0.251E-06 -.200E+03   -.163E-13 -.595E-05 0.247E+03   0.000E+00 -.260E-17 -.462E+02   0.139E-11 0.564E-05 -.561E-02
   0.142E-12 -.277E-07 -.200E+03   -.121E-13 0.645E-06 0.247E+03   0.000E+00 -.867E-18 -.462E+02   -.498E-12 -.687E-06 -.525E-02
   0.109E-14 0.176E-06 0.200E+03   0.400E-13 -.418E-05 -.247E+03   0.217E-18 -.260E-17 0.462E+02   0.247E-11 0.410E-05 0.539E-02
   0.991E-13 -.126E-07 0.200E+03   -.329E-13 0.277E-06 -.247E+03   0.217E-18 -.867E-18 0.462E+02   0.295E-12 -.393E-06 0.442E-02
 -----------------------------------------------------------------------------------------------
   0.588E-11 0.175E-03 0.146E-01   0.639E-13 0.817E-13 -.853E-13   0.711E-14 0.107E-13 -.108E-01   -.386E-11 -.700E-04 -.179E-02
 
 
 POSITION                                       TOTAL-FORCE (eV/Angst)
 -----------------------------------------------------------------------------------
      3.73672      3.71629      2.70696         0.000000      0.000000     -0.001036
      0.00000      0.00000      0.82927         0.000000      0.000000     -0.001036
      6.04957      1.43082      3.36978         0.006093     -0.005208      0.001781
      1.42386      6.00176      3.36978        -0.006093      0.005208      0.001781
      6.04957      6.00176      3.36978         0.006093      0.005208      0.001781
      1.42386      1.43082      3.36978        -0.006093     -0.005208      0.001781
      2.31285      5.14711      1.49209         0.006093     -0.005208      0.001781
      5.16058      2.28547      1.49209        -0.006093      0.005208      0.001781
      2.31285      2.28547      1.49209         0.006093      0.005208      0.001781
      5.16058      5.14711      1.49209        -0.006093     -0.005208      0.001781
      6.04966      1.43089      2.04393         0.006012     -0.005367     -0.001596
      1.42378      6.00168      2.04393        -0.006012      0.005367     -0.001596
      6.04966      6.00168      2.04393         0.006012      0.005367     -0.001596
      1.42378      1.43089      2.04393        -0.006012     -0.005367     -0.001596
      2.31294      5.14718      0.16624         0.006012     -0.005367     -0.001596
      5.16050      2.28539      0.16624        -0.006012      0.005367     -0.001596
      2.31294      2.28539      0.16624         0.006012      0.005367     -0.001596
      5.16050      5.14718      0.16624        -0.006012     -0.005367     -0.001596
      0.00000      3.71629      1.38441         0.000000      0.000000      0.013941
      3.73672      0.00000      3.26210         0.000000      0.000000      0.013941
      0.00000      3.71629      0.27110         0.000000      0.000000     -0.013641
      3.73672      0.00000      2.14879         0.000000      0.000000     -0.013641
 -----------------------------------------------------------------------------------
    total drift:                                0.000000      0.000105      0.002014


--------------------------------------------------------------------------------------------------------



  FREE ENERGIE OF THE ION-ELECTRON SYSTEM (eV)
  ---------------------------------------------------
  free  energy   TOTEN  =      -182.51114813 eV

  energy  without entropy=     -182.51114813  energy(sigma->0) =     -182.51114813
 


--------------------------------------------------------------------------------------------------------


    POTLOK:  cpu time    0.10: real time    0.17


--------------------------------------------------------------------------------------------------------


 writing wavefunctions
     LOOP+:  cpu time 1474.93: real time 2058.01
    4ORBIT:  cpu time    0.00: real time    0.00
 


 total charge     
 
# of ion     s       p       d       tot
----------------------------------------
  1        0.249   6.429   1.425   8.103
  2        0.249   6.429   1.425   8.103
  3        1.245   2.585   0.000   3.830
  4        1.245   2.586   0.000   3.831
  5        1.245   2.586   0.000   3.831
  6        1.244   2.571   0.000   3.815
  7        1.245   2.585   0.000   3.830
  8        1.245   2.586   0.000   3.831
  9        1.245   2.586   0.000   3.831
 10        1.244   2.571   0.000   3.815
 11        1.245   2.586   0.000   3.831
 12        1.245   2.585   0.000   3.830
 13        1.244   2.571   0.000   3.815
 14        1.245   2.586   0.000   3.831
 15        1.245   2.586   0.000   3.831
 16        1.245   2.585   0.000   3.830
 17        1.244   2.571   0.000   3.815
 18        1.245   2.586   0.000   3.831
 19        1.376   2.498   0.000   3.874
 20        1.376   2.498   0.000   3.874
 21        1.376   2.498   0.000   3.874
 22        1.376   2.498   0.000   3.874
------------------------------------------------
tot       25.920  64.156   2.851  92.927
 
 BZINTS: Fermi energy:  5.381247;120.000000 electrons
         Band energy:-853.215329;  BLOECHL correction: -0.036469

 total amount of memory used by VASP on root node  1090887. kBytes
========================================================================

   base      :      30000. kBytes
   nonl-proj :     516736. kBytes
   fftplans  :       5349. kBytes
   grid      :       8380. kBytes
   one-center:        171. kBytes
   wavefun   :     530251. kBytes
 
  
  
 General timing and accounting informations for this job:
 ========================================================
  
                  Total CPU time used (sec):     1537.255
                            User time (sec):     1519.932
                          System time (sec):       17.323
                         Elapsed time (sec):     2216.002
  
                   Maximum memory used (kb):     2166520.
                   Average memory used (kb):           0.
  
                          Minor page faults:        19407
                          Major page faults:            0
                 Voluntary context switches:       100279
